version 2
run debug-0-20141128-13:20:47-3505
attr configname debug
attr datetime 20141128-13:20:47
attr experiment debug
attr inifile omnetpp.ini
attr iterationvars ""
attr iterationvars2 $repetition=0
attr measurement ""
attr network WAVEScenario
attr processid 3505
attr repetition 0
attr replication #0
attr resultdir results
attr runnumber 0
attr seedset 0

vector 2  WAVEScenario.node[0].usermobility  posx  ETV
vector 3  WAVEScenario.node[0].usermobility  posy  ETV
vector 4  WAVEScenario.node[0].usermobility  speed  ETV
vector 5  WAVEScenario.node[0].usermobility  acceleration  ETV
vector 6  WAVEScenario.node[0].usermobility  co2emission  ETV
vector 9  WAVEScenario.node[1].usermobility  posx  ETV
vector 10  WAVEScenario.node[1].usermobility  posy  ETV
vector 11  WAVEScenario.node[1].usermobility  speed  ETV
vector 12  WAVEScenario.node[1].usermobility  acceleration  ETV
vector 13  WAVEScenario.node[1].usermobility  co2emission  ETV
vector 16  WAVEScenario.node[2].usermobility  posx  ETV
vector 17  WAVEScenario.node[2].usermobility  posy  ETV
vector 18  WAVEScenario.node[2].usermobility  speed  ETV
vector 19  WAVEScenario.node[2].usermobility  acceleration  ETV
vector 20  WAVEScenario.node[2].usermobility  co2emission  ETV
vector 23  WAVEScenario.node[3].usermobility  posx  ETV
vector 24  WAVEScenario.node[3].usermobility  posy  ETV
vector 25  WAVEScenario.node[3].usermobility  speed  ETV
vector 26  WAVEScenario.node[3].usermobility  acceleration  ETV
vector 27  WAVEScenario.node[3].usermobility  co2emission  ETV
vector 30  WAVEScenario.node[4].usermobility  posx  ETV
vector 31  WAVEScenario.node[4].usermobility  posy  ETV
vector 32  WAVEScenario.node[4].usermobility  speed  ETV
vector 33  WAVEScenario.node[4].usermobility  acceleration  ETV
vector 34  WAVEScenario.node[4].usermobility  co2emission  ETV
vector 37  WAVEScenario.node[5].usermobility  posx  ETV
vector 38  WAVEScenario.node[5].usermobility  posy  ETV
vector 39  WAVEScenario.node[5].usermobility  speed  ETV
vector 40  WAVEScenario.node[5].usermobility  acceleration  ETV
vector 41  WAVEScenario.node[5].usermobility  co2emission  ETV
vector 44  WAVEScenario.node[6].usermobility  posx  ETV
vector 45  WAVEScenario.node[6].usermobility  posy  ETV
vector 46  WAVEScenario.node[6].usermobility  speed  ETV
vector 47  WAVEScenario.node[6].usermobility  acceleration  ETV
vector 48  WAVEScenario.node[6].usermobility  co2emission  ETV
vector 51  WAVEScenario.node[7].usermobility  posx  ETV
vector 52  WAVEScenario.node[7].usermobility  posy  ETV
vector 53  WAVEScenario.node[7].usermobility  speed  ETV
vector 54  WAVEScenario.node[7].usermobility  acceleration  ETV
vector 55  WAVEScenario.node[7].usermobility  co2emission  ETV
vector 58  WAVEScenario.node[8].usermobility  posx  ETV
vector 59  WAVEScenario.node[8].usermobility  posy  ETV
vector 60  WAVEScenario.node[8].usermobility  speed  ETV
vector 61  WAVEScenario.node[8].usermobility  acceleration  ETV
vector 62  WAVEScenario.node[8].usermobility  co2emission  ETV
vector 65  WAVEScenario.node[9].usermobility  posx  ETV
vector 66  WAVEScenario.node[9].usermobility  posy  ETV
vector 67  WAVEScenario.node[9].usermobility  speed  ETV
vector 68  WAVEScenario.node[9].usermobility  acceleration  ETV
vector 69  WAVEScenario.node[9].usermobility  co2emission  ETV
vector 72  WAVEScenario.node[10].usermobility  posx  ETV
vector 73  WAVEScenario.node[10].usermobility  posy  ETV
vector 74  WAVEScenario.node[10].usermobility  speed  ETV
vector 75  WAVEScenario.node[10].usermobility  acceleration  ETV
vector 76  WAVEScenario.node[10].usermobility  co2emission  ETV
vector 79  WAVEScenario.node[11].usermobility  posx  ETV
vector 80  WAVEScenario.node[11].usermobility  posy  ETV
vector 81  WAVEScenario.node[11].usermobility  speed  ETV
vector 82  WAVEScenario.node[11].usermobility  acceleration  ETV
vector 83  WAVEScenario.node[11].usermobility  co2emission  ETV
vector 86  WAVEScenario.node[12].usermobility  posx  ETV
vector 87  WAVEScenario.node[12].usermobility  posy  ETV
vector 88  WAVEScenario.node[12].usermobility  speed  ETV
vector 89  WAVEScenario.node[12].usermobility  acceleration  ETV
vector 90  WAVEScenario.node[12].usermobility  co2emission  ETV
vector 93  WAVEScenario.node[13].usermobility  posx  ETV
vector 94  WAVEScenario.node[13].usermobility  posy  ETV
vector 95  WAVEScenario.node[13].usermobility  speed  ETV
vector 96  WAVEScenario.node[13].usermobility  acceleration  ETV
vector 97  WAVEScenario.node[13].usermobility  co2emission  ETV
vector 100  WAVEScenario.node[14].usermobility  posx  ETV
vector 101  WAVEScenario.node[14].usermobility  posy  ETV
vector 102  WAVEScenario.node[14].usermobility  speed  ETV
vector 103  WAVEScenario.node[14].usermobility  acceleration  ETV
vector 104  WAVEScenario.node[14].usermobility  co2emission  ETV
6	7	0.3	1.4276208928798
6	10	0.4	1.5553504369406
6	13	0.5	1.6547258140606
6	16	0.6	1.7983555805977
6	19	0.7	1.8323674505787
6	22	0.8	2.0110897446338
6	25	0.9	1.970451684244
6	28	1	2.2449013734311
6	31	1.1	2.2119208452933
6	34	1.2	2.2548819012347
6	37	1.3	2.5345448660167
6	40	1.4	2.6013847819414
6	43	1.5	2.852151772081
6	46	1.6	2.3526342216865
6	49	1.7	3.339605186172
6	52	1.8	2.4276646371033
6	55	1.9	3.3234379637286
6	58	2	3.3108190720898
6	61	2.1	3.2988402737822
6	64	2.2	2.9578171889378
6	67	2.3	2.9959376211745
6	70	2.4	3.4908200907348
6	73	2.5	3.6670806850063
6	76	2.6	3.6268696198063
6	79	2.7	4.0205201967415
6	82	2.8	3.1988957479633
6	85	2.9	3.4137976506977
6	88	3	4.907912272511
6	91	3.1	4.5496391886597
6	95	3.2	5.1843707050129
6	100	3.3	5.490502883119
6	105	3.4	3.8970556575359
6	110	3.5	4.0812734992789
6	115	3.6	3.9458891055838
6	120	3.7	3.7593760917064
6	125	3.8	4.2273339749307
6	130	3.9	5.1045553963918
6	135	4	4.4294934204996
6	140	4.1	6.1704815888201
6	145	4.2	4.9722185416067
6	150	4.3	6.3796667209292
6	155	4.4	4.3550328563445
6	160	4.5	5.5724689565354
6	165	4.6	5.9783016536976
6	170	4.7	6.531517038645
6	175	4.8	5.1600288586713
6	180	4.9	6.1886912441601
6	185	5	5.9549957283831
6	190	5.1	7.7853608744789
6	195	5.2	6.0293065596097
6	200	5.3	6.1389862136434
6	205	5.4	6.215380184048
6	210	5.5	5.2080809029875
6	215	5.6	6.1561018361202
6	220	5.7	7.3629412347938
6	225	5.8	7.2141082079045
6	230	5.9	6.3899916329279
6	235	6	8.8173762262081
6	240	6.1	6.712915009577
6	246	6.2	6.7856909201694
6	253	6.3	8.0773156423548
6	260	6.4	8.3743676988308
6	267	6.5	8.4713421478856
6	274	6.6	8.1436375074094
6	281	6.7	6.1246890190291
6	288	6.8	9.3014481119437
6	295	6.9	6.1272339967354
6	302	7	9.3496226877566
6	309	7.1	8.5304672898817
6	316	7.2	9.1242607840614
6	323	7.3	0.973
6	330	7.4	4.3577761273913
6	337	7.5	0.973
6	344	7.6	2.5720389208699
6	351	7.7	2.8766605061585
6	358	7.8	4.3165487169568
6	365	7.9	0.973
6	372	8	1.5897409358382
6	379	8.1	4.2992840120413
6	386	8.2	3.8192287130312
6	393	8.3	0.973
6	400	8.4	4.9896392768023
6	407	8.5	0.973
6	414	8.6	3.2116257252267
6	421	8.7	2.8822162993739
6	428	8.8	0.973
6	435	8.9	2.2705069044256
6	442	9	3.8308782287708
6	449	9.1	2.0735985700595
6	457	9.2	0.973
6	466	9.3	2.8376475775941
6	475	9.4	1.3397800903168
6	484	9.5	0.973
6	493	9.6	0.973
6	502	9.7	2.6721583083952
6	511	9.8	1.7699536569376
6	520	9.9	4.1362624045135
6	529	10	0.973
6	538	10.1	0.973
6	547	10.2	0.973
6	556	10.3	0.973
6	565	10.4	0.973
6	574	10.5	0.973
6	583	10.6	0.973
6	592	10.7	0.973
6	601	10.8	0.973
6	610	10.9	0.973
6	619	11	0.973
6	628	11.1	0.973
6	637	11.2	0.973
6	646	11.3	0.973
6	655	11.4	0.973
6	664	11.5	0.973
6	673	11.6	0.973
6	682	11.7	0.973
6	691	11.8	0.973
6	700	11.9	0.973
6	709	12	0.973
6	718	12.1	0.973
6	728	12.2	0.973
6	739	12.3	0.973
6	750	12.4	0.973
6	761	12.5	0.973
6	772	12.6	0.973
6	783	12.7	0.973
6	794	12.8	0.973
6	805	12.9	0.973
6	816	13	0.973
6	827	13.1	0.973
6	838	13.2	0.973
6	849	13.3	0.973
6	860	13.4	0.973
6	871	13.5	0.973
6	882	13.6	3.5735574093087
6	893	13.7	3.7500424838715
6	904	13.8	3.9266738352852
6	915	13.9	4.1034612054572
6	926	14	4.2804143362946
6	937	14.1	4.4575429697045
6	948	14.2	4.6348568475942
6	959	14.3	4.8123657118707
6	970	14.4	4.9900793044413
6	981	14.5	3.8570439909308
6	992	14.6	3.9658166612094
6	1003	14.7	4.9321216693566
6	1014	14.8	4.746637985347
6	1025	14.9	4.5696051347275
6	1036	15	5.2216510129458
6	1047	15.1	4.4214073361883
6	1059	15.2	4.2489042048499
6	1072	15.3	5.4585271853975
6	1085	15.4	4.6050085823935
6	1098	15.5	4.8474587574368
6	1111	15.6	4.5203652490089
6	1124	15.7	5.9819080005712
6	1137	15.8	5.6131830759796
6	1150	15.9	6.5511640891088
6	1163	16	7.0908903175858
6	1176	16.1	6.7157379063457
6	1189	16.2	7.3807846395105
6	1202	16.3	5.6087545858803
6	1215	16.4	7.7880890112275
6	1228	16.5	5.7357624026778
6	1241	16.6	6.2165560631356
6	1254	16.7	7.5164231263597
6	1267	16.8	6.7326702205247
6	1280	16.9	6.0964562366966
6	1293	17	7.981273887304
6	1306	17.1	5.7457965389222
6	1319	17.2	6.202061885998
6	1332	17.3	7.5371876127656
6	1345	17.4	7.6928493572579
6	1358	17.5	7.7960277624751
6	1371	17.6	6.4398105311437
6	1384	17.7	8.0365249061328
6	1397	17.8	6.0681766278845
6	1410	17.9	6.9306994043177
6	1423	18	9.3762185666796
6	1436	18.1	7.3527644615935
6	1450	18.2	6.7810181465907
6	1465	18.3	9.82520242459
6	1480	18.4	8.568514074897
6	1495	18.5	9.4567343017326
6	1510	18.6	3.772814371066
6	1525	18.7	0.973
6	1540	18.8	5.3680948288379
6	1555	18.9	0.973
6	1570	19	1.9796426442958
6	1585	19.1	0.973
6	1600	19.2	3.7649097958479
6	1615	19.3	3.2342043860393
6	1630	19.4	2.5370470023251
6	1645	19.5	0.973
6	1660	19.6	0.973
6	1675	19.7	2.7858082982705
6	1690	19.8	1.8806459786383
6	1705	19.9	4.1892888634077
6	1720	20	0.973
6	1735	20.1	3.3273489879395
6	1750	20.2	0.973
6	1765	20.3	2.8083311032441
6	1780	20.4	0.973
6	1795	20.5	3.8701196018204
6	1810	20.6	3.9055126662748
6	1825	20.7	2.2167231120935
6	1840	20.8	2.1267615853112
6	1855	20.9	1.8745016987642
6	1870	21	0.973
6	1885	21.1	0.973
6	1901	21.2	0.973
6	1918	21.3	0.973
6	1935	21.4	0.973
6	1952	21.5	0.973
6	1969	21.6	0.973
6	1986	21.7	0.973
6	2003	21.8	0.973
6	2020	21.9	0.973
6	2037	22	0.973
6	2054	22.1	0.973
6	2071	22.2	0.973
6	2088	22.3	0.973
6	2105	22.4	0.973
6	2122	22.5	0.973
6	2139	22.6	0.973
6	2156	22.7	0.973
6	2173	22.8	0.973
6	2190	22.9	0.973
6	2207	23	0.973
6	2224	23.1	0.973
6	2241	23.2	0.973
6	2258	23.3	0.973
6	2275	23.4	0.973
6	2292	23.5	0.973
6	2309	23.6	0.973
6	2326	23.7	0.973
6	2343	23.8	0.973
6	2360	23.9	0.973
6	2377	24	0.973
6	2394	24.1	0.973
6	2412	24.2	0.973
6	2431	24.3	0.973
6	2450	24.4	0.973
6	2469	24.5	0.973
6	2488	24.6	3.6240893109914
6	2507	24.7	3.8006152845237
6	2526	24.8	3.9772903250419
6	2545	24.9	4.1541241744533
6	2564	25	4.3311265746651
6	2583	25.1	4.5083072675844
6	2602	25.2	4.6856759951183
6	2621	25.3	4.8632424991741
6	2640	25.4	5.0410165216589
6	2659	25.5	3.8859149192882
6	2678	25.6	4.8522949201943
6	2697	25.7	4.5889825125131
6	2716	25.8	4.3613735727495
6	2735	25.9	4.7665186718711
6	2754	26	3.8863474238154
6	2773	26.1	4.2288138443319
6	2792	26.2	4.0547633818732
6	2811	26.3	4.7855603242303
6	2830	26.4	5.3447560740367
6	2849	26.5	4.2105475839239
6	2868	26.6	5.9521117542015
6	2887	26.7	5.4794975640117
6	2906	26.8	4.5562149503915
6	2925	26.9	6.8150424461882
6	2944	27	6.0671182779949
6	2963	27.1	4.9167537301483
6	2983	27.2	6.2074298318165
6	3004	27.3	7.2191883226358
6	3025	27.4	7.4029662412396
6	3046	27.5	6.2315306477114
6	3067	27.6	5.3135756322439
6	3088	27.7	7.4083525223848
6	3109	27.8	5.4366569957971
6	3130	27.9	7.8819571607796
6	3151	28	5.8637898573298
6	3172	28.1	7.300168473967
6	3193	28.2	7.1956609415836
6	3214	28.3	8.2428881276577
6	3235	28.4	8.2730115017943
6	3256	28.5	8.6600607501145
6	3277	28.6	6.3742753388212
6	3298	28.7	6.7595762358298
6	3319	28.8	7.4215966634988
6	3340	28.9	6.7221375290765
6	3361	29	7.1594565533866
6	3382	29.1	7.0981869224596
6	3403	29.2	6.6705148011106
6	3424	29.3	7.2322677423476
6	3445	29.4	8.6806146629715
6	3466	29.5	7.2213268246598
6	3487	29.6	9.704010775064
6	3508	29.7	5.2051598044383
6	3529	29.8	2.2527785912388
6	3550	29.9	3.8779324726601
6	3571	30	0.973
6	3592	30.1	4.0563165424524
6	3614	30.2	2.4974147815801
6	3637	30.3	2.6234386093264
6	3660	30.4	0.973
6	3683	30.5	0.973
6	3706	30.6	5.9481304986441
6	3729	30.7	0.973
6	3752	30.8	1.22943389264
6	3775	30.9	1.2449607330017
6	3798	31	2.306543854533
6	3821	31.1	2.3682685624403
6	3844	31.2	3.7272252321311
6	3867	31.3	3.3504652801419
6	3890	31.4	0.973
6	3913	31.5	3.7946588212991
6	3936	31.6	2.5978908169034
6	3959	31.7	3.1205944417295
6	3982	31.8	0.973
6	4005	31.9	4.900131742039
6	4028	32	1.5422295165011
6	4051	32.1	0.973
6	4074	32.2	4.7365360471292
6	4097	32.3	1.2892134415373
6	4120	32.4	2.4438162566846
6	4143	32.5	2.081470272681
6	4166	32.6	0.973
6	4189	32.7	2.6073115496339
6	4212	32.8	0.973
6	4235	32.9	2.5080033727809
6	4258	33	3.0691083272925
6	4281	33.1	2.8069630944739
6	4305	33.2	3.4228742932049
6	4330	33.3	2.4229642860123
6	4355	33.4	1.9481205210849
6	4380	33.5	0.973
6	4405	33.6	0.973
6	4430	33.7	1.6137199384644
6	4455	33.8	5.4581182051791
6	4480	33.9	1.1724425509851
6	4505	34	0.973
6	4530	34.1	0.973
6	4555	34.2	4.2901252969638
6	4580	34.3	2.1807892580674
6	4605	34.4	0.973
6	4630	34.5	5.4500336096567
6	4655	34.6	0.973
6	4680	34.7	1.6077071836274
6	4705	34.8	4.2164149685244
6	4730	34.9	0.973
6	4755	35	2.6324454217777
6	4780	35.1	3.7361960928487
6	4805	35.2	2.8030554132891
6	4830	35.3	0.973
6	4855	35.4	2.7287698073391
6	4880	35.5	1.4507132293964
6	4905	35.6	4.7738799021828
6	4930	35.7	3.0331004570136
6	4955	35.8	2.3799921965629
6	4980	35.9	0.973
6	5005	36	0.973
6	5030	36.1	1.1439859085481
6	5056	36.2	2.4422554546711
6	5083	36.3	1.6221075207514
6	5110	36.4	1.4580984178586
6	5137	36.5	3.2543421532531
6	5164	36.6	0.973
6	5191	36.7	2.7624488986526
6	5218	36.8	2.6693405788011
6	5245	36.9	2.5239614729003
6	5272	37	0.973
6	5299	37.1	2.27340611427
6	5326	37.2	3.8871342971372
6	5353	37.3	0.973
6	5380	37.4	0.973
6	5407	37.5	5.5850668294176
6	5434	37.6	0.973
6	5461	37.7	5.3842168906133
6	5488	37.8	0.973
6	5515	37.9	3.5413747818586
6	5542	38	0.973
6	5569	38.1	1.6965337062786
6	5596	38.2	1.9533337411185
6	5623	38.3	3.3150421268234
6	5650	38.4	1.3773243841751
6	5677	38.5	1.6917259843089
6	5704	38.6	4.5051012118678
6	5731	38.7	1.0678052002357
6	5758	38.8	0.973
6	5785	38.9	6.1369874165672
6	5812	39	0.973
6	5839	39.1	0.973
6	5867	39.2	2.6548912224364
6	5896	39.3	2.2658802838798
6	5925	39.4	2.0921093163573
6	5954	39.5	1.796956524847
6	5983	39.6	0.973
6	6012	39.7	1.9185893990171
6	6041	39.8	3.1984403677914
6	6070	39.9	1.8499864723631
6	6099	40	1.7454590802006
6	6128	40.1	4.0225528450589
6	6157	40.2	1.6959078639418
6	6186	40.3	0.973
6	6215	40.4	4.9582513850192
6	6244	40.5	0.973
6	6273	40.6	3.0350899324897
6	6302	40.7	2.8943142928736
6	6331	40.8	3.9506625639666
6	6360	40.9	0.973
6	6389	41	2.7376558250438
6	6418	41.1	0.973
6	6447	41.2	4.0043333622608
6	6476	41.3	0.973
6	6505	41.4	4.9733704029949
6	6534	41.5	2.1813089541052
6	6563	41.6	0.973
6	6592	41.7	3.8902297432169
6	6621	41.8	0.973
6	6650	41.9	2.3685248484644
6	6679	42	3.9751414886821
6	6708	42.1	2.5093000406688
6	6738	42.2	1.9087092704988
6	6769	42.3	3.6189241179591
6	6800	42.4	0.973
5	7	0.3	2.4479752470855
5	10	0.4	2.3290637582572
5	13	0.5	2.1818481258762
5	16	0.6	2.2357036410334
5	19	0.7	1.9855717337837
5	22	0.8	2.1556800054752
5	25	0.9	1.8177961522857
5	28	1	2.1703654659723
5	31	1.1	1.8999668675033
5	34	1.2	1.8135391334582
5	37	1.3	2.1003037793096
5	40	1.4	2.0311366270296
5	43	1.5	2.213205013168
5	46	1.6	1.4406950977165
5	49	1.7	2.5262731315568
5	52	1.8	1.3472384067252
5	55	1.9	2.2455468171276
5	58	2	2.1015260222834
5	61	2.1	1.979035354848
5	64	2.2	1.5707574565429
5	67	2.3	1.5441806555958
5	70	2.4	1.9124366020085
5	73	2.5	1.9760296771768
5	76	2.6	1.861542067118
5	79	2.7	2.0893797688885
5	82	2.8	1.3967243768042
5	85	2.9	1.5130976005224
5	88	3	2.5076531236758
5	91	3.1	2.16138498988
5	95	3.2	2.4867319139419
5	100	3.3	2.5737160811434
5	105	3.4	1.5175942043075
5	110	3.5	1.5883962160442
5	115	3.6	1.4689842111664
5	120	3.7	1.3277961542364
5	125	3.8	1.5610938670114
5	130	3.9	2.0000768283615
5	135	4	1.5853120716521
5	140	4.1	2.4462432491127
5	145	4.2	1.7681026779115
5	150	4.3	2.413640728849
5	155	4.4	1.3719304058002
5	160	4.5	1.9215971733676
5	165	4.6	2.0609394765459
5	170	4.7	2.2560777051607
5	175	4.8	1.5934962075436
5	180	4.9	2.0070045632543
5	185	5	1.8610358671751
5	190	5.1	2.5755732625723
5	195	5.2	1.7970738488948
5	200	5.3	1.8042755607981
5	205	5.4	1.7979858017527
5	210	5.5	1.3731275021331
5	215	5.6	1.7136336127995
5	220	5.7	2.1326397273224
5	225	5.8	2.0318584615365
5	230	5.9	1.6930794459535
5	235	6	2.5217068935512
5	240	6.1	1.7332032753387
5	246	6.2	1.7281707641901
5	253	6.3	2.1344021787401
5	260	6.4	2.1899431454483
5	267	6.5	2.1774386041798
5	274	6.6	2.0298180325888
5	281	6.7	1.3533659499604
5	288	6.8	2.3284602138447
5	295	6.9	1.3061105647124
5	302	7	2.2707209182903
5	309	7.1	1.9828932433389
5	316	7.2	2.1237779836318
5	323	7.3	-0.67051755650901
5	330	7.4	0.69754018457607
5	337	7.5	-1.0548045324627
5	344	7.6	0.16715116663836
5	351	7.7	0.25759127894418
5	358	7.8	0.68477199978661
5	365	7.9	-1.0167235876667
5	372	8	-0.12813790892251
5	379	8.1	0.68328243996948
5	386	8.2	0.53556285242085
5	393	8.3	-1.2225186239695
5	400	8.4	0.88848049053922
5	407	8.5	-0.51027728305197
5	414	8.6	0.35671765725128
5	421	8.7	0.25667311176656
5	428	8.8	-0.45471310988068
5	435	8.9	0.074922233750119
5	442	9	0.53953699145932
5	449	9.1	0.014076425158418
5	457	9.2	-0.306093408796
5	466	9.3	0.2428024208173
5	475	9.4	-0.20489069765899
5	484	9.5	-0.38623889465816
5	493	9.6	-0.31515522389672
5	502	9.7	0.1964605357265
5	511	9.8	-0.074590725474994
5	520	9.9	0.63237314489671
5	529	10	-3.7140856953146
5	538	10.1	-2.9621553461115
5	547	10.2	-3.7178356585583
5	556	10.3	-3.7177556634409
5	565	10.4	-3.5125273090237
5	574	10.5	-3.4331098520423
5	583	10.6	-3.3109522588677
5	592	10.7	-3.0716847170398
5	601	10.8	-3.5687991781258
5	610	10.9	-2.5431661972141
5	619	11	-2.6910954925232
5	628	11.1	-4.0311948625099
5	637	11.2	-3.1110581454228
5	646	11.3	-2.49591556567
5	655	11.4	-3.6622133962449
5	664	11.5	-3.0757743640984
5	673	11.6	-3.1280177515175
5	682	11.7	-3.2863787560456
5	691	11.8	-2.347147176928
5	700	11.9	-3.4019422405471
5	709	12	-1.9204662744008
5	718	12.1	-3.6730069372524
5	728	12.2	-2.0395810378463
5	739	12.3	-3.2232254993577
5	750	12.4	-3.1520001716355
5	761	12.5	-1.6885349946361
5	772	12.6	-3.3654656086344
5	783	12.7	-1.6873615517547
5	794	12.8	-3.5726926190638
5	805	12.9	-2.5341890137759
5	816	13	-1.7968513860919
5	827	13.1	-1.8887609442611
5	838	13.2	-2.3341686997751
5	849	13.3	-2.7334543021512
5	860	13.4	-1.5447099117149
5	871	13.5	-2.7997778972337
5	882	13.6	2.6
5	893	13.7	2.6
5	904	13.8	2.6
5	915	13.9	2.6
5	926	14	2.6
5	937	14.1	2.6
5	948	14.2	2.6
5	959	14.3	2.6
5	970	14.4	2.6
5	981	14.5	1.7197939507896
5	992	14.6	1.7379983353661
5	1003	14.7	2.3020148800686
5	1014	14.8	2.10149694141
5	1025	14.9	1.9243754500989
5	1036	15	2.2443953567417
5	1047	15.1	1.7161567086354
5	1059	15.2	1.5746387521736
5	1072	15.3	2.1921998833306
5	1085	15.4	1.6749410319608
5	1098	15.5	1.7598562344676
5	1111	15.6	1.5501456555212
5	1124	15.7	2.2400381221902
5	1137	15.8	1.9979047445813
5	1150	15.9	2.385553467134
5	1163	16	2.5604111445136
5	1176	16.1	2.317314357264
5	1189	16.2	2.5407009731513
5	1202	16.3	1.7195577013073
5	1215	16.4	2.5879879088374
5	1228	16.5	1.6854567790404
5	1241	16.6	1.8454187302152
5	1254	16.7	2.3160762974527
5	1267	16.8	1.9600512881996
5	1280	16.9	1.6788874064805
5	1293	17	2.3473551146453
5	1306	17.1	1.4789972851286
5	1319	17.2	1.620359514025
5	1332	17.3	2.0663602160523
5	1345	17.4	2.0785279560834
5	1358	17.5	2.0720433662646
5	1371	17.6	1.5744653938105
5	1384	17.7	2.0806514079915
5	1397	17.8	1.3959231875138
5	1410	17.9	1.6567273215158
5	1423	18	2.4089693658985
5	1436	18.1	1.7263378561707
5	1450	18.2	1.521517085121
5	1465	18.3	2.4290723654441
5	1480	18.4	2.0039310801541
5	1495	18.5	2.2314254969824
5	1510	18.6	0.52210936993292
5	1525	18.7	-0.89833975047803
5	1540	18.8	0.99803519956767
5	1555	18.9	-0.58521801659372
5	1570	19	-0.012535154609932
5	1585	19.1	-0.63691555019469
5	1600	19.2	0.52390509280377
5	1615	19.3	0.36248333160765
5	1630	19.4	0.15304383605253
5	1645	19.5	-0.38615376171656
5	1660	19.6	-0.5462854103418
5	1675	19.7	0.23076158596668
5	1690	19.8	-0.0413078714395
5	1705	19.9	0.64809142716696
5	1720	20	-0.2916653731838
5	1735	20.1	0.3894685378531
5	1750	20.2	-0.61264601892326
5	1765	20.3	0.23597618204077
5	1780	20.4	-0.66508574860636
5	1795	20.5	0.55527360129636
5	1810	20.6	0.56190453257877
5	1825	20.7	0.056743824551813
5	1840	20.8	0.029758613766173
5	1855	20.9	-0.045499333390033
5	1870	21	-2.7634793301823
5	1885	21.1	-3.2374440682944
5	1901	21.2	-2.8208683987602
5	1918	21.3	-3.2938366096372
5	1935	21.4	-4.1794714069371
5	1952	21.5	-3.0411359652877
5	1969	21.6	-3.315103514273
5	1986	21.7	-2.8393574132283
5	2003	21.8	-4.5
5	2020	21.9	-3.27163484018
5	2037	22	-2.2122914770905
5	2054	22.1	-3.741909178815
5	2071	22.2	-3.2307688232421
5	2088	22.3	-3.3881290716212
5	2105	22.4	-2.2094245345645
5	2122	22.5	-2.8644476403563
5	2139	22.6	-3.9422161711347
5	2156	22.7	-2.9816774656138
5	2173	22.8	-2.1557496345826
5	2190	22.9	-3.1808342019168
5	2207	23	-2.9278956376099
5	2224	23.1	-3.4320834564641
5	2241	23.2	-2.6662531300526
5	2258	23.3	-2.0256152636992
5	2275	23.4	-3.1260997832692
5	2292	23.5	-3.1430062480702
5	2309	23.6	-2.836423415425
5	2326	23.7	-2.3024484573134
5	2343	23.8	-2.8027623651804
5	2360	23.9	-1.6617121292429
5	2377	24	-2.888638772085
5	2394	24.1	-2.3643797338034
5	2412	24.2	-2.1115695827294
5	2431	24.3	-2.3327380171253
5	2450	24.4	-1.8518099468129
5	2469	24.5	-2.5840694978436
5	2488	24.6	2.6
5	2507	24.7	2.6
5	2526	24.8	2.6
5	2545	24.9	2.6
5	2564	25	2.6
5	2583	25.1	2.6
5	2602	25.2	2.6
5	2621	25.3	2.6
5	2640	25.4	2.6
5	2659	25.5	1.7155467273435
5	2678	25.6	2.2900627422147
5	2697	25.7	2.0386795956176
5	2716	25.8	1.8316650338005
5	2735	25.9	2.0174143206328
5	2754	26	1.4432682489278
5	2773	26.1	1.6051482347073
5	2792	26.2	1.4675926590804
5	2811	26.3	1.8333968688501
5	2830	26.4	2.0802578022238
5	2849	26.5	1.4316125426907
5	2868	26.6	2.2859758479754
5	2887	26.7	1.9848529339535
5	2906	26.8	1.4857376064174
5	2925	26.9	2.5234686303418
5	2944	27	2.1041837031953
5	2963	27.1	1.5308712441474
5	2983	27.2	2.0734537062934
5	3004	27.3	2.4572802008828
5	3025	27.4	2.4657123983372
5	3046	27.5	1.918560988293
5	3067	27.6	1.5043900797376
5	3088	27.7	2.3121846189955
5	3109	27.8	1.4868409618968
5	3130	27.9	2.4006204547361
5	3151	28	1.5840765192406
5	3172	28.1	2.0896605831338
5	3193	28.2	2.0073320310563
5	3214	28.3	2.3393291867804
5	3235	28.4	2.2969988192664
5	3256	28.5	2.3788704673527
5	3277	28.6	1.5565002210438
5	3298	28.7	1.6611607753905
5	3319	28.8	1.852223792905
5	3340	28.9	1.5929114827653
5	3361	29	1.7088794027455
5	3382	29.1	1.6621408590581
5	3403	29.2	1.5024945496814
5	3424	29.3	1.655058645457
5	3445	29.4	2.0710014853626
5	3466	29.5	1.5960547496099
5	3487	29.6	2.3081929820357
5	3508	29.7	0.94742497779945
5	3529	29.8	0.066385293938218
5	3550	29.9	0.54718062318861
5	3571	30	-0.64096945989876
5	3592	30.1	0.60046275383792
5	3614	30.2	0.13674247770105
5	3637	30.3	0.1734067134792
5	3660	30.4	-0.51005857477431
5	3683	30.5	-0.62188202021643
5	3706	30.6	1.1587251393357
5	3729	30.7	-0.6564675513655
5	3752	30.8	-0.23870302438736
5	3775	30.9	-0.23375444938429
5	3798	31	0.083152484428144
5	3821	31.1	0.10120394909753
5	3844	31.2	0.503377842973
5	3867	31.3	0.38908476706128
5	3890	31.4	-1.068020263291
5	3913	31.5	0.5244778708089
5	3936	31.6	0.16753136701883
5	3959	31.7	0.32121835686265
5	3982	31.8	-0.87097587964962
5	4005	31.9	0.84927099065389
5	4028	32	-0.14662893766072
5	4051	32.1	-0.70171850174665
5	4074	32.2	0.80115069414022
5	4097	32.3	-0.22159283468499
5	4120	32.4	0.1211302783573
5	4143	32.5	0.013476923550488
5	4166	32.6	-0.54027746831999
5	4189	32.7	0.17120088331867
5	4212	32.8	-0.58234782780055
5	4235	32.9	0.14341600541957
5	4258	33	0.30937836430967
5	4281	33.1	0.23017348933498
5	4305	33.2	0.41096204251517
5	4330	33.3	0.11389647875912
5	4355	33.4	-0.026776560861617
5	4380	33.5	-0.55385535224341
5	4405	33.6	-0.38549744074698
5	4430	33.7	-0.12363668896723
5	4455	33.8	1.014327812288
5	4480	33.9	-0.25637328862214
5	4505	34	-0.60091237656305
5	4530	34.1	-0.3141609418206
5	4555	34.2	0.67184898669366
5	4580	34.3	0.043890733830629
5	4605	34.4	-0.71094370887149
5	4630	34.5	1.0135047510499
5	4655	34.6	-0.43521425384098
5	4680	34.7	-0.12607293808832
5	4705	34.8	0.64659352095331
5	4730	34.9	-1.1008108439855
5	4755	35	0.18058080070185
5	4780	35.1	0.50685786020477
5	4805	35.2	0.22809278792701
5	4830	35.3	-0.93856426752172
5	4855	35.4	0.20932509982959
5	4880	35.5	-0.17208099577111
5	4905	35.6	0.81441360337195
5	4930	35.7	0.29536633731331
5	4955	35.8	0.1012300337432
5	4980	35.9	-0.37956513357349
5	5005	36	-0.36274346797727
5	5030	36.1	-0.26403728888836
5	5056	36.2	0.12314078377095
5	5083	36.3	-0.12127486639656
5	5110	36.4	-0.16993890816812
5	5137	36.5	0.36499619777315
5	5164	36.6	-0.38346732228529
5	5191	36.7	0.21908337941859
5	5218	36.8	0.190447836183
5	5245	36.9	0.14650772679598
5	5272	37	-0.31582733325195
5	5299	37.1	0.072755548264833
5	5326	37.2	0.55032151066698
5	5353	37.3	-0.30415346138179
5	5380	37.4	-0.57640077981633
5	5407	37.5	1.0530394216999
5	5434	37.6	-0.93100196162705
5	5461	37.7	0.99280344911387
5	5488	37.8	-0.58623542855495
5	5515	37.9	0.44698539278471
5	5542	38	-0.83218547268771
5	5569	38.1	-0.09867716601585
5	5596	38.2	-0.021846211422236
5	5623	38.3	0.38306527992246
5	5650	38.4	-0.1943754651351
5	5677	38.5	-0.10026861997321
5	5704	38.6	0.73424178406132
5	5731	38.7	-0.28713092533872
5	5758	38.8	-0.55037224071565
5	5785	38.9	1.2148486675694
5	5812	39	-0.59070559658576
5	5839	39.1	-0.31651050071231
5	5867	39.2	0.18581345041747
5	5896	39.3	0.06965704080649
5	5925	39.4	0.017849533632397
5	5954	39.5	-0.069861852750179
5	5983	39.6	-0.43049496547319
5	6012	39.7	-0.032328136148863
5	6041	39.8	0.34830610528587
5	6070	39.9	-0.053617159393617
5	6099	40	-0.084590357122938
5	6128	40.1	0.59073154684157
5	6157	40.2	-0.10051746487152
5	6186	40.3	-0.4635196941439
5	6215	40.4	0.86603028695098
5	6244	40.5	-1.0897976159584
5	6273	40.6	0.29978458001278
5	6302	40.7	0.25654574923683
5	6331	40.8	0.56698217752855
5	6360	40.9	-0.41050665827933
5	6389	41	0.20825446010567
5	6418	41.1	-0.39041854967364
5	6447	41.2	0.58296490178909
5	6476	41.3	-0.9676664347062
5	6505	41.4	0.8711872836575
5	6534	41.5	0.042601130669926
5	6563	41.6	-1.0654004097916
5	6592	41.7	0.55308717321603
5	6621	41.8	-0.672506160615
5	6650	41.9	0.10220196170266
5	6679	42	0.5783090430079
5	6708	42.1	0.14135948601179
5	6738	42.2	-0.037150353821929
5	6769	42.3	0.46859405471478
5	6800	42.4	-0.92864066057373
4	4	0.2	0.25286542447004
4	7	0.3	0.49766294917859
4	10	0.4	0.73056932500431
4	13	0.5	0.94875413759194
4	16	0.6	1.1723245016953
4	19	0.7	1.3708816750736
4	22	0.8	1.5864496756212
4	25	0.9	1.7682292908497
4	28	1	1.985265837447
4	31	1.1	2.1752625241973
4	34	1.2	2.3566164375431
4	37	1.3	2.5666468154741
4	40	1.4	2.769760478177
4	43	1.5	2.9910809794938
4	46	1.6	3.1351504892655
4	49	1.7	3.3877778024212
4	52	1.8	3.5225016430937
4	55	1.9	3.7470563248065
4	58	2	3.9572089270348
4	61	2.1	4.1551124625196
4	64	2.2	4.3121882081739
4	67	2.3	4.4666062737335
4	70	2.4	4.6578499339343
4	73	2.5	4.855452901652
4	76	2.6	5.0416071083638
4	79	2.7	5.2505450852527
4	82	2.8	5.3902175229331
4	85	2.9	5.5415272829853
4	88	3	5.7922925953529
4	91	3.1	6.0084310943409
4	95	3.2	6.2571042857351
4	100	3.3	6.5144758938494
4	105	3.4	6.6662353142802
4	110	3.5	6.8250749358846
4	115	3.6	6.9719733570013
4	120	3.7	7.1047529724249
4	125	3.8	7.260862359126
4	130	3.9	7.4608700419622
4	135	4	7.6194012491274
4	140	4.1	7.8640255740387
4	145	4.2	8.0408358418298
4	150	4.3	8.2821999147147
4	155	4.4	8.4193929552947
4	160	4.5	8.6115526726315
4	165	4.6	8.8176466202861
4	170	4.7	9.0432543908022
4	175	4.8	9.2026040115565
4	180	4.9	9.403304467882
4	185	5	9.5894080545995
4	190	5.1	9.8469653808567
4	195	5.2	10.026672765746
4	200	5.3	10.207100321826
4	205	5.4	10.386898902001
4	210	5.5	10.524211652215
4	215	5.6	10.695575013495
4	220	5.7	10.908838986227
4	225	5.8	11.11202483238
4	230	5.9	11.281332776976
4	235	6	11.533503466331
4	240	6.1	11.706823793865
4	246	6.2	11.879640870284
4	253	6.3	12.093081088158
4	260	6.4	12.312075402703
4	267	6.5	12.529819263121
4	274	6.6	12.732801066379
4	281	6.7	12.868137661375
4	288	6.8	13.10098368276
4	295	6.9	13.231594739231
4	302	7	13.45866683106
4	309	7.1	13.656956155394
4	316	7.2	13.869333953757
4	323	7.3	13.802282198106
4	330	7.4	13.872036216564
4	337	7.5	13.766555763318
4	344	7.6	13.783270879982
4	351	7.7	13.809030007876
4	358	7.8	13.877507207855
4	365	7.9	13.775834849088
4	372	8	13.763021058196
4	379	8.1	13.831349302193
4	386	8.2	13.884905587435
4	393	8.3	13.762653725038
4	400	8.4	13.851501774092
4	407	8.5	13.800474045787
4	414	8.6	13.836145811512
4	421	8.7	13.861813122688
4	428	8.8	13.8163418117
4	435	8.9	13.823834035075
4	442	9	13.877787734221
4	449	9.1	13.879195376737
4	457	9.2	13.848586035857
4	466	9.3	13.872866277939
4	475	9.4	13.852377208173
4	484	9.5	13.813753318707
4	493	9.6	13.782237796318
4	502	9.7	13.80188384989
4	511	9.8	13.794424777343
4	520	9.9	13.857662091833
4	529	10	13.486253522301
4	538	10.1	13.19003798769
4	547	10.2	12.818254421834
4	556	10.3	12.44647885549
4	565	10.4	12.095226124588
4	574	10.5	11.751915139383
4	583	10.6	11.420819913497
4	592	10.7	11.113651441793
4	601	10.8	10.75677152398
4	610	10.9	10.502454904259
4	619	11	10.233345355006
4	628	11.1	9.8302258687554
4	637	11.2	9.5191200542132
4	646	11.3	9.2695284976461
4	655	11.4	8.9033071580217
4	664	11.5	8.5957297216118
4	673	11.6	8.2829279464601
4	682	11.7	7.9542900708555
4	691	11.8	7.7195753531627
4	700	11.9	7.379381129108
4	709	12	7.1873345016679
4	718	12.1	6.8200338079427
4	728	12.2	6.6160757041581
4	739	12.3	6.2937531542223
4	750	12.4	5.9785531370587
4	761	12.5	5.8096996375951
4	772	12.6	5.4731530767317
4	783	12.7	5.3044169215562
4	794	12.8	4.9471476596498
4	805	12.9	4.6937287582722
4	816	13	4.5140436196631
4	827	13.1	4.3251675252369
4	838	13.2	4.0917506552594
4	849	13.3	3.8184052250443
4	860	13.4	3.6639342338728
4	871	13.5	3.3839564441494
4	882	13.6	3.6439564441494