file 13371316 1420708060                                        
version 2
run General-0-20150108-17:06:57-12096
attr configname General
attr datetime 20150108-17:06:57
attr experiment General
attr inifile omnetpp.ini
attr iterationvars $0=0
attr iterationvars2 "$0=0, $repetition=0"
attr measurement $0=0
attr network WAVETest
attr processid 12096
attr repetition 0
attr replication #0
attr resultdir results
attr runnumber 0
attr seedset 0

vector 5  WAVETest.node[0].veinsmobility  posx  ETV
vector 6  WAVETest.node[0].veinsmobility  posy  ETV
vector 7  WAVETest.node[0].veinsmobility  speed  ETV
vector 8  WAVETest.node[0].veinsmobility  acceleration  ETV
vector 9  WAVETest.node[0].veinsmobility  co2emission  ETV
vector 15  WAVETest.node[1].veinsmobility  posx  ETV
vector 16  WAVETest.node[1].veinsmobility  posy  ETV
vector 17  WAVETest.node[1].veinsmobility  speed  ETV
vector 18  WAVETest.node[1].veinsmobility  acceleration  ETV
vector 19  WAVETest.node[1].veinsmobility  co2emission  ETV
vector 25  WAVETest.node[2].veinsmobility  posx  ETV
vector 26  WAVETest.node[2].veinsmobility  posy  ETV
vector 27  WAVETest.node[2].veinsmobility  speed  ETV
vector 28  WAVETest.node[2].veinsmobility  acceleration  ETV
vector 29  WAVETest.node[2].veinsmobility  co2emission  ETV
vector 35  WAVETest.node[3].veinsmobility  posx  ETV
vector 36  WAVETest.node[3].veinsmobility  posy  ETV
vector 37  WAVETest.node[3].veinsmobility  speed  ETV
vector 38  WAVETest.node[3].veinsmobility  acceleration  ETV
vector 39  WAVETest.node[3].veinsmobility  co2emission  ETV
vector 45  WAVETest.node[4].veinsmobility  posx  ETV
vector 46  WAVETest.node[4].veinsmobility  posy  ETV
vector 47  WAVETest.node[4].veinsmobility  speed  ETV
vector 48  WAVETest.node[4].veinsmobility  acceleration  ETV
vector 49  WAVETest.node[4].veinsmobility  co2emission  ETV
vector 55  WAVETest.node[5].veinsmobility  posx  ETV
vector 56  WAVETest.node[5].veinsmobility  posy  ETV
vector 57  WAVETest.node[5].veinsmobility  speed  ETV
vector 58  WAVETest.node[5].veinsmobility  acceleration  ETV
vector 59  WAVETest.node[5].veinsmobility  co2emission  ETV
vector 65  WAVETest.node[6].veinsmobility  posx  ETV
vector 66  WAVETest.node[6].veinsmobility  posy  ETV
vector 67  WAVETest.node[6].veinsmobility  speed  ETV
vector 68  WAVETest.node[6].veinsmobility  acceleration  ETV
vector 69  WAVETest.node[6].veinsmobility  co2emission  ETV
vector 75  WAVETest.node[7].veinsmobility  posx  ETV
vector 76  WAVETest.node[7].veinsmobility  posy  ETV
vector 77  WAVETest.node[7].veinsmobility  speed  ETV
vector 78  WAVETest.node[7].veinsmobility  acceleration  ETV
vector 79  WAVETest.node[7].veinsmobility  co2emission  ETV
vector 85  WAVETest.node[8].veinsmobility  posx  ETV
vector 86  WAVETest.node[8].veinsmobility  posy  ETV
vector 87  WAVETest.node[8].veinsmobility  speed  ETV
vector 88  WAVETest.node[8].veinsmobility  acceleration  ETV
vector 89  WAVETest.node[8].veinsmobility  co2emission  ETV
vector 95  WAVETest.node[9].veinsmobility  posx  ETV
vector 96  WAVETest.node[9].veinsmobility  posy  ETV
vector 97  WAVETest.node[9].veinsmobility  speed  ETV
vector 98  WAVETest.node[9].veinsmobility  acceleration  ETV
vector 99  WAVETest.node[9].veinsmobility  co2emission  ETV
vector 105  WAVETest.node[10].veinsmobility  posx  ETV
vector 106  WAVETest.node[10].veinsmobility  posy  ETV
vector 107  WAVETest.node[10].veinsmobility  speed  ETV
vector 108  WAVETest.node[10].veinsmobility  acceleration  ETV
vector 109  WAVETest.node[10].veinsmobility  co2emission  ETV
vector 115  WAVETest.node[11].veinsmobility  posx  ETV
vector 116  WAVETest.node[11].veinsmobility  posy  ETV
vector 117  WAVETest.node[11].veinsmobility  speed  ETV
vector 118  WAVETest.node[11].veinsmobility  acceleration  ETV
vector 119  WAVETest.node[11].veinsmobility  co2emission  ETV
vector 125  WAVETest.node[12].veinsmobility  posx  ETV
vector 126  WAVETest.node[12].veinsmobility  posy  ETV
vector 127  WAVETest.node[12].veinsmobility  speed  ETV
vector 128  WAVETest.node[12].veinsmobility  acceleration  ETV
vector 129  WAVETest.node[12].veinsmobility  co2emission  ETV
vector 135  WAVETest.node[13].veinsmobility  posx  ETV
vector 136  WAVETest.node[13].veinsmobility  posy  ETV
vector 137  WAVETest.node[13].veinsmobility  speed  ETV
vector 138  WAVETest.node[13].veinsmobility  acceleration  ETV
vector 139  WAVETest.node[13].veinsmobility  co2emission  ETV
vector 145  WAVETest.node[14].veinsmobility  posx  ETV
vector 146  WAVETest.node[14].veinsmobility  posy  ETV
vector 147  WAVETest.node[14].veinsmobility  speed  ETV
vector 148  WAVETest.node[14].veinsmobility  acceleration  ETV
vector 149  WAVETest.node[14].veinsmobility  co2emission  ETV
vector 155  WAVETest.node[15].veinsmobility  posx  ETV
vector 156  WAVETest.node[15].veinsmobility  posy  ETV
vector 157  WAVETest.node[15].veinsmobility  speed  ETV
vector 158  WAVETest.node[15].veinsmobility  acceleration  ETV
vector 159  WAVETest.node[15].veinsmobility  co2emission  ETV
vector 165  WAVETest.node[16].veinsmobility  posx  ETV
vector 166  WAVETest.node[16].veinsmobility  posy  ETV
vector 167  WAVETest.node[16].veinsmobility  speed  ETV
vector 168  WAVETest.node[16].veinsmobility  acceleration  ETV
vector 169  WAVETest.node[16].veinsmobility  co2emission  ETV
vector 175  WAVETest.node[17].veinsmobility  posx  ETV
vector 176  WAVETest.node[17].veinsmobility  posy  ETV
vector 177  WAVETest.node[17].veinsmobility  speed  ETV
vector 178  WAVETest.node[17].veinsmobility  acceleration  ETV
vector 179  WAVETest.node[17].veinsmobility  co2emission  ETV
vector 185  WAVETest.node[18].veinsmobility  posx  ETV
vector 186  WAVETest.node[18].veinsmobility  posy  ETV
vector 187  WAVETest.node[18].veinsmobility  speed  ETV
vector 188  WAVETest.node[18].veinsmobility  acceleration  ETV
vector 189  WAVETest.node[18].veinsmobility  co2emission  ETV
vector 195  WAVETest.node[19].veinsmobility  posx  ETV
vector 196  WAVETest.node[19].veinsmobility  posy  ETV
vector 197  WAVETest.node[19].veinsmobility  speed  ETV
vector 198  WAVETest.node[19].veinsmobility  acceleration  ETV
vector 199  WAVETest.node[19].veinsmobility  co2emission  ETV
vector 205  WAVETest.node[20].veinsmobility  posx  ETV
vector 206  WAVETest.node[20].veinsmobility  posy  ETV
vector 207  WAVETest.node[20].veinsmobility  speed  ETV
vector 208  WAVETest.node[20].veinsmobility  acceleration  ETV
vector 209  WAVETest.node[20].veinsmobility  co2emission  ETV
vector 215  WAVETest.node[21].veinsmobility  posx  ETV
vector 216  WAVETest.node[21].veinsmobility  posy  ETV
vector 217  WAVETest.node[21].veinsmobility  speed  ETV
vector 218  WAVETest.node[21].veinsmobility  acceleration  ETV
vector 219  WAVETest.node[21].veinsmobility  co2emission  ETV
vector 225  WAVETest.node[22].veinsmobility  posx  ETV
vector 226  WAVETest.node[22].veinsmobility  posy  ETV
vector 227  WAVETest.node[22].veinsmobility  speed  ETV
vector 228  WAVETest.node[22].veinsmobility  acceleration  ETV
vector 229  WAVETest.node[22].veinsmobility  co2emission  ETV
vector 235  WAVETest.node[23].veinsmobility  posx  ETV
vector 236  WAVETest.node[23].veinsmobility  posy  ETV
vector 237  WAVETest.node[23].veinsmobility  speed  ETV
vector 238  WAVETest.node[23].veinsmobility  acceleration  ETV
vector 239  WAVETest.node[23].veinsmobility  co2emission  ETV
vector 245  WAVETest.node[24].veinsmobility  posx  ETV
vector 246  WAVETest.node[24].veinsmobility  posy  ETV
vector 247  WAVETest.node[24].veinsmobility  speed  ETV
vector 248  WAVETest.node[24].veinsmobility  acceleration  ETV
vector 249  WAVETest.node[24].veinsmobility  co2emission  ETV
vector 255  WAVETest.node[25].veinsmobility  posx  ETV
vector 256  WAVETest.node[25].veinsmobility  posy  ETV
vector 257  WAVETest.node[25].veinsmobility  speed  ETV
vector 258  WAVETest.node[25].veinsmobility  acceleration  ETV
vector 259  WAVETest.node[25].veinsmobility  co2emission  ETV
vector 265  WAVETest.node[26].veinsmobility  posx  ETV
vector 266  WAVETest.node[26].veinsmobility  posy  ETV
vector 267  WAVETest.node[26].veinsmobility  speed  ETV
vector 268  WAVETest.node[26].veinsmobility  acceleration  ETV
vector 269  WAVETest.node[26].veinsmobility  co2emission  ETV
vector 200  WAVETest.node[20].appl  hopLimit:vector  ETV
attr interpolationmode  none
attr source  hopLimit
attr title  "hop limit, vector"
vector 201  WAVETest.node[20].appl  delay:vector  ETV
attr interpolationmode  none
attr source  delay
attr title  "delay time, vector"
vector 202  WAVETest.node[20].appl  distance:vector  ETV
attr interpolationmode  none
attr source  distance
attr title  "distance, vector"
vector 275  WAVETest.node[27].veinsmobility  posx  ETV
vector 276  WAVETest.node[27].veinsmobility  posy  ETV
vector 277  WAVETest.node[27].veinsmobility  speed  ETV
vector 278  WAVETest.node[27].veinsmobility  acceleration  ETV
vector 279  WAVETest.node[27].veinsmobility  co2emission  ETV
vector 285  WAVETest.node[28].veinsmobility  posx  ETV
vector 286  WAVETest.node[28].veinsmobility  posy  ETV
vector 287  WAVETest.node[28].veinsmobility  speed  ETV
vector 288  WAVETest.node[28].veinsmobility  acceleration  ETV
vector 289  WAVETest.node[28].veinsmobility  co2emission  ETV
vector 295  WAVETest.node[29].veinsmobility  posx  ETV
vector 296  WAVETest.node[29].veinsmobility  posy  ETV
vector 297  WAVETest.node[29].veinsmobility  speed  ETV
vector 298  WAVETest.node[29].veinsmobility  acceleration  ETV
vector 299  WAVETest.node[29].veinsmobility  co2emission  ETV
vector 305  WAVETest.node[30].veinsmobility  posx  ETV
vector 306  WAVETest.node[30].veinsmobility  posy  ETV
vector 307  WAVETest.node[30].veinsmobility  speed  ETV
vector 308  WAVETest.node[30].veinsmobility  acceleration  ETV
vector 309  WAVETest.node[30].veinsmobility  co2emission  ETV
vector 315  WAVETest.node[31].veinsmobility  posx  ETV
vector 316  WAVETest.node[31].veinsmobility  posy  ETV
vector 317  WAVETest.node[31].veinsmobility  speed  ETV
vector 318  WAVETest.node[31].veinsmobility  acceleration  ETV
vector 319  WAVETest.node[31].veinsmobility  co2emission  ETV
vector 325  WAVETest.node[32].veinsmobility  posx  ETV
vector 326  WAVETest.node[32].veinsmobility  posy  ETV
vector 327  WAVETest.node[32].veinsmobility  speed  ETV
vector 328  WAVETest.node[32].veinsmobility  acceleration  ETV
vector 329  WAVETest.node[32].veinsmobility  co2emission  ETV
vector 335  WAVETest.node[33].veinsmobility  posx  ETV
vector 336  WAVETest.node[33].veinsmobility  posy  ETV
vector 337  WAVETest.node[33].veinsmobility  speed  ETV
vector 338  WAVETest.node[33].veinsmobility  acceleration  ETV
vector 339  WAVETest.node[33].veinsmobility  co2emission  ETV
vector 345  WAVETest.node[34].veinsmobility  posx  ETV
vector 346  WAVETest.node[34].veinsmobility  posy  ETV
vector 347  WAVETest.node[34].veinsmobility  speed  ETV
vector 348  WAVETest.node[34].veinsmobility  acceleration  ETV
vector 349  WAVETest.node[34].veinsmobility  co2emission  ETV
vector 355  WAVETest.node[35].veinsmobility  posx  ETV
vector 356  WAVETest.node[35].veinsmobility  posy  ETV
vector 357  WAVETest.node[35].veinsmobility  speed  ETV
vector 358  WAVETest.node[35].veinsmobility  acceleration  ETV
vector 359  WAVETest.node[35].veinsmobility  co2emission  ETV
vector 365  WAVETest.node[36].veinsmobility  posx  ETV
vector 366  WAVETest.node[36].veinsmobility  posy  ETV
vector 367  WAVETest.node[36].veinsmobility  speed  ETV
vector 368  WAVETest.node[36].veinsmobility  acceleration  ETV
vector 369  WAVETest.node[36].veinsmobility  co2emission  ETV
vector 375  WAVETest.node[37].veinsmobility  posx  ETV
vector 376  WAVETest.node[37].veinsmobility  posy  ETV
vector 377  WAVETest.node[37].veinsmobility  speed  ETV
vector 378  WAVETest.node[37].veinsmobility  acceleration  ETV
vector 379  WAVETest.node[37].veinsmobility  co2emission  ETV
vector 385  WAVETest.node[38].veinsmobility  posx  ETV
vector 386  WAVETest.node[38].veinsmobility  posy  ETV
vector 387  WAVETest.node[38].veinsmobility  speed  ETV
vector 388  WAVETest.node[38].veinsmobility  acceleration  ETV
vector 389  WAVETest.node[38].veinsmobility  co2emission  ETV
vector 395  WAVETest.node[39].veinsmobility  posx  ETV
vector 396  WAVETest.node[39].veinsmobility  posy  ETV
vector 397  WAVETest.node[39].veinsmobility  speed  ETV
vector 398  WAVETest.node[39].veinsmobility  acceleration  ETV
vector 399  WAVETest.node[39].veinsmobility  co2emission  ETV
vector 405  WAVETest.node[40].veinsmobility  posx  ETV
vector 406  WAVETest.node[40].veinsmobility  posy  ETV
vector 407  WAVETest.node[40].veinsmobility  speed  ETV
vector 408  WAVETest.node[40].veinsmobility  acceleration  ETV
vector 409  WAVETest.node[40].veinsmobility  co2emission  ETV
vector 415  WAVETest.node[41].veinsmobility  posx  ETV
vector 416  WAVETest.node[41].veinsmobility  posy  ETV
vector 417  WAVETest.node[41].veinsmobility  speed  ETV
vector 418  WAVETest.node[41].veinsmobility  acceleration  ETV
vector 419  WAVETest.node[41].veinsmobility  co2emission  ETV
vector 425  WAVETest.node[42].veinsmobility  posx  ETV
vector 426  WAVETest.node[42].veinsmobility  posy  ETV
vector 427  WAVETest.node[42].veinsmobility  speed  ETV
vector 428  WAVETest.node[42].veinsmobility  acceleration  ETV
vector 429  WAVETest.node[42].veinsmobility  co2emission  ETV
vector 435  WAVETest.node[43].veinsmobility  posx  ETV
vector 436  WAVETest.node[43].veinsmobility  posy  ETV
vector 437  WAVETest.node[43].veinsmobility  speed  ETV
vector 438  WAVETest.node[43].veinsmobility  acceleration  ETV
vector 439  WAVETest.node[43].veinsmobility  co2emission  ETV
vector 445  WAVETest.node[44].veinsmobility  posx  ETV
vector 446  WAVETest.node[44].veinsmobility  posy  ETV
vector 447  WAVETest.node[44].veinsmobility  speed  ETV
vector 448  WAVETest.node[44].veinsmobility  acceleration  ETV
vector 449  WAVETest.node[44].veinsmobility  co2emission  ETV
vector 455  WAVETest.node[45].veinsmobility  posx  ETV
vector 456  WAVETest.node[45].veinsmobility  posy  ETV
vector 457  WAVETest.node[45].veinsmobility  speed  ETV
vector 458  WAVETest.node[45].veinsmobility  acceleration  ETV
vector 459  WAVETest.node[45].veinsmobility  co2emission  ETV
vector 465  WAVETest.node[46].veinsmobility  posx  ETV
vector 466  WAVETest.node[46].veinsmobility  posy  ETV
vector 467  WAVETest.node[46].veinsmobility  speed  ETV
vector 468  WAVETest.node[46].veinsmobility  acceleration  ETV
vector 469  WAVETest.node[46].veinsmobility  co2emission  ETV
vector 475  WAVETest.node[47].veinsmobility  posx  ETV
vector 476  WAVETest.node[47].veinsmobility  posy  ETV
vector 477  WAVETest.node[47].veinsmobility  speed  ETV
vector 478  WAVETest.node[47].veinsmobility  acceleration  ETV
vector 479  WAVETest.node[47].veinsmobility  co2emission  ETV
vector 485  WAVETest.node[48].veinsmobility  posx  ETV
vector 486  WAVETest.node[48].veinsmobility  posy  ETV
vector 487  WAVETest.node[48].veinsmobility  speed  ETV
vector 488  WAVETest.node[48].veinsmobility  acceleration  ETV
vector 489  WAVETest.node[48].veinsmobility  co2emission  ETV
vector 495  WAVETest.node[49].veinsmobility  posx  ETV
vector 496  WAVETest.node[49].veinsmobility  posy  ETV
vector 497  WAVETest.node[49].veinsmobility  speed  ETV
vector 498  WAVETest.node[49].veinsmobility  acceleration  ETV
vector 499  WAVETest.node[49].veinsmobility  co2emission  ETV
9	15237 82953 7 267282 0.3 300 2998 -1.3976894690629 38.669141058489 19611.150915138 236249.09810315
8	98190 91988 7 267282 0.3 300 2998 -2.4115383648314 4.9530255049467 293.51740970591 4093.2986831185
7	190178 88489 4 267282 0.2 300 2999 0.48627966244239 29.99995332153 88426.486756568 2629545.9393471
6	278667 72315 2 267282 0.1 300 3000 3188.1751264065 6029.95 16736808.760697 95328021724.236
5	350982 80957 2 267282 0.1 300 3000 27.6 6029.95 11817399.767232 59015486116.923
19	431939 84598 179 267282 5.3 300 2948 -1.3790734301237 34.314216765057 19451.575793101 233308.9044561
18	516537 93589 179 267282 5.3 300 2948 -2.4410684569739 4.9766082456335 293.41857907182 4104.0832649417
17	610126 90179 174 267282 5.2 300 2949 0.485449505219 29.999986162409 86970.048994258 2586354.2750621
16	700305 74041 170 267282 5.1 300 2950 3333.8178313155 6029.95 16570402.090857 94764925102.47
15	774346 83035 170 267282 5.1 300 2950 27.6 6029.95 11522533.39212 57238908474.233
109	857381 75360 8216 267282 50.3 300 2498 -1.3855586760096 35.298337639838 16488.677470051 202343.20729572
108	932741 82819 8216 267282 50.3 300 2498 -2.4281598150264 4.9990816245554 294.27871006029 3661.6995933007
107	1015560 79886 8160 267282 50.2 300 2499 0.48245398792205 29.999949976453 73541.646449093 2185457.870726
106	1095446 63776 8099 267282 50.1 300 2500 4676.6663875901 6029.95 14767665.5066 87473287884.371
105	1159222 76324 8099 267282 50.1 300 2500 27.6 6029.95 8813021.7377685 40899871031.149
119	1235546 73884 9835 267282 55.3 300 2448 -1.4145688889203 39.815570339759 16156.612073291 196553.25187338
118	1309430 81311 9835 267282 55.3 300 2448 -2.4167416145792 4.9369204358663 294.23851857561 3550.4082681398
117	1390741 78413 9771 267282 55.2 300 2449 0.47637025090517 29.999799355573 72029.281581163 2140084.9227263
116	1469154 62288 9708 267282 55.1 300 2450 4827.9018640945 6029.95 14530938.460731 86353454759.228
115	1531442 75249 9708 267282 55.1 300 2450 27.6 6029.95 8507329.7222739 39056648383.981
129	1606691 72524 11599 267282 60.3 300 2398 -1.3733918244871 39.054173654401 15818.138247357 193319.93572852
128	1679215 79754 11599 267282 60.3 300 2398 -2.4553292355267 4.986223896849 293.37319598044 3509.3813928378
127	1758969 76870 11527 267282 60.2 300 2399 0.48098018418532 29.999958389788 70530.253934585 2095080.1055656
126	1835839 60747 11462 267282 60.1 300 2400 4977.7964365197 6029.95 14286057.896709 85154248257.59
125	1896586 74094 11462 267282 60.1 300 2400 27.6 6029.95 8204766.0692447 37232120336.432
139	1970680 70877 13508 267282 65.3 300 2348 -1.3731577611997 38.898903707675 15563.864203512 191170.21883073
138	2041557 78087 13508 267282 65.3 300 2348 -2.4628556176322 4.9802168703172 292.64508925099 3483.8779164047
137	2119644 75349 13428 267282 65.2 300 2349 0.49195865406655 29.999844280712 69043.6642004 2050977.1407692
136	2194993 59217 13361 267282 65.1 300 2350 5126.4492267179 6029.95 14033315.921546 83876381696.95
135	2254210 72967 13361 267282 65.1 300 2350 27.6 6029.95 7904205.6669501 35420654255.953
149	2327177 69537 15583 267282 70.3 300 2298 -1.3732789077972 35.878465598329 15231.877733522 186061.86212763
148	2396714 76518 15583 267282 70.3 300 2298 -2.3998821619898 4.9711170282077 293.42395689758 3409.3582323332
147	2473232 73832 15474 267282 70.2 300 2299 0.48062990354374 29.999923365773 67559.10941657 2006572.2239274
146	2547064 57674 15405 267282 70.1 300 2300 5274.9113609024 6029.95 13773097.31025 82521806575.068
145	2604738 71814 15405 267282 70.1 300 2300 27.6 6029.95 7604761.4892267 33614382118.736
159	2676552 68186 17782 267282 75.3 300 2248 -1.4095348574202 38.55494951876 15094.093817688 187088.14308351
158	2744738 74866 17782 267282 75.3 300 2248 -2.3494156228844 4.8685712151928 293.50170860824 3468.2316452482
157	2819604 72277 17665 267282 75.2 300 2249 0.49804604699602 29.999953221937 66044.639646037 1961037.1857138
156	2891881 56143 17594 267282 75.1 300 2250 5426.3608570871 6029.95 13506123.128592 81096536108.277
155	2948024 70675 17594 267282 75.1 300 2250 27.6 6029.95 7299333.0154988 31772419280.321
169	3018699 66541 20159 267282 80.3 300 2198 -1.4078851971929 36.269333430455 14653.219939074 182555.26118195
168	3085240 73372 20159 267282 80.3 300 2198 -2.4181136366678 4.9287465430098 294.74875337159 3379.1909377124
167	3158612 70721 20001 267282 80.2 300 2199 0.49948783503496 29.999877258437 64571.805146675 1917401.1796321
166	3229333 54619 19928 267282 80.1 300 2200 5573.6569216497 6029.95 13230830.155974 79580534941.171
165	3283952 69538 19928 267282 80.1 300 2200 27.6 6029.95 7001998.2591713 29979678005.241
179	3353490 65031 22654 267282 85.3 300 2148 -1.386135504974 32.341864924326 14546.299247695 182256.04815662
178	3418521 71673 22654 267282 85.3 300 2148 -2.4508145824075 4.9798199371435 295.1492192829 3425.7607836204
177	3490194 69188 22482 267282 85.2 300 2149 0.47968434647191 29.999948261422 63057.146006049 1872220.0838092
176	3559382 53082 22407 267282 85.1 300 2150 5725.1248600225 6029.95 12948693.763664 77988518970.622
175	3612464 68409 22407 267282 85.1 300 2150 27.6 6029.95 6695992.2899739 28135399574.977
189	3680873 63889 25282 267282 90.3 300 2098 -1.3776344014114 36.166736255971 13927.22731866 171834.0479717
188	3744762 70218 25282 267282 90.3 300 2098 -2.4646977207158 4.9888134241337 293.09166126372 3212.9616728704
187	3814980 67697 25108 267282 90.2 300 2099 0.49639379185392 29.999994992511 61589.557164404 1828248.8787016
186	3882677 51554 25031 267282 90.1 300 2100 5871.8648395515 6029.95 12658631.845892 76305664145.254
185	3934231 67281 25031 267282 90.1 300 2100 27.6 6029.95 6399919.6559262 26349053665.923
199	4001512 62373 28094 267282 95.3 300 2048 -1.3844223433738 39.875681930023 13635.671077916 167334.45033161
198	4063885 68544 28094 267282 95.3 300 2048 -2.414756193175 4.9950234347489 294.45053308015 3105.4339756335
197	4132429 66152 27879 267282 95.2 300 2049 0.49264745102264 29.999795254145 60030.842716519 1781068.2461026
196	4198581 49996 27800 267282 95.1 300 2050 6028.7817263905 6029.95 12361396.331726 74538594767.229
195	4248577 66105 27800 267282 95.1 300 2050 27.6 6028.6173463289 6085621.9778388 24452748983.144
29	4314682 83224 479 267282 10.3 300 2898 -1.4110930207975 39.900245068962 19177.281723745 234313.28820904
28	4397906 92247 479 267282 10.3 300 2898 -2.4453851295402 4.953695514705 293.6131656759 4134.3603117886
27	4490153 88854 472 267282 10.2 300 2899 0.49292982601328 29.999981575762 85462.144202064 2541249.3256512
26	4579007 72704 466 267282 10.1 300 2900 3484.611004433 6029.95 16401219.397954 94195460596.569
25	4651711 82098 466 267282 10.1 300 2900 27.6 6029.95 11219029.199892 55407329083.439
202	4733809 87 53358 101860 130.856593370399 175.856112371255 2 2959.7366835286 2959.7974100728 5919.5340936014 17520441.944499
201	4733896 85 53358 101860 130.856593370399 175.856112371255 2 0.791614705498 0.792095704642 1.58371041014 1.254069447273
200	4733981 59 53358 101860 130.856593370399 175.856112371255 2 8 8 16 128
209	4734040 60709 31012 267282 100.3 300 1998 -1.3960764292207 37.495972800557 13451.958603035 168180.8956872
208	4794749 66906 31012 267282 100.3 300 1998 -2.3749555554241 4.9628357165976 293.46044905408 3180.5080774361
207	4861655 64617 30795 267282 100.2 300 1999 0.47988404684584 29.999634734704 58584.539012075 1738438.0984613
206	4926272 48847 30714 267282 100.1 300 2000 6029.95 6029.95 12059900 72720594005.002
205	4975119 64589 30714 267282 100.1 300 2000 27.6 5882.9713083123 5797941.5121887 22738521657.319
219	5039708 59359 34081 267282 105.3 300 1948 -1.4010765799032 39.068540163525 13235.543253635 167968.16293317
218	5099067 65244 34081 267282 105.3 300 1948 -2.4181402864633 4.9207419622689 294.61815029092 3215.5398672821
217	5164311 63007 33856 267282 105.2 300 1949 0.48666951677296 29.999962406175 57077.571493354 1693500.4462452
216	5227318 47657 33773 267282 105.1 300 1950 6029.95 6029.95 11758402.5 70902579154.877
215	5274975 63012 33773 267282 105.1 300 1950 27.6 5732.2623008808 5503938.7741713 21031651868.56
229	5337987 57988 37328 267282 110.3 300 1898 -1.4104201978307 36.996710210698 12654.521257502 154954.18073928
228	5395975 63659 37328 267282 110.3 300 1898 -2.3758965492016 4.9948581057834 293.39855506097 2951.1631536818
227	5459634 61431 37095 267282 110.2 300 1899 0.4816563306842 29.999835990951 55618.42225272 1649840.4980899
226	5521065 46467 36977 267282 110.1 300 1900 6029.95 6029.95 11456905 69084564304.752
225	5567532 61430 36977 267282 110.1 300 1900 27.6 5586.3600740884 5228086.9678321 19469552582.478
239	5628962 56463 40681 267282 115.3 300 1848 -1.4018534385415 34.185670590142 12544.940992275 157358.45078816
238	5685425 61994 40681 267282 115.3 300 1848 -2.4959334876621 4.9818231485551 292.70525811857 3053.9740012508
237	5747419 59854 40452 267282 115.2 300 1849 0.49448965230258 29.999988428724 54120.540344012 1605357.8015742
236	5807273 45277 40326 267282 115.1 300 1850 6029.95 6029.95 11155407.5 67266549454.627
235	5852550 59841 40326 267282 115.1 300 1850 27.6 5436.5775328548 4950839.34881 17942890850.864
249	5912391 54884 44185 267282 120.3 300 1798 -1.3955292202727 38.451169625307 12239.948306452 156124.13084101
248	5967275 60288 44185 267282 120.3 300 1798 -2.4000933812931 4.9838743376313 294.83387295733 3047.7120803451
247	6027563 58276 43954 267282 120.2 300 1799 0.49868673954043 29.999991855933 52635.358015624 1560868.4378653
246	6085839 44087 43820 267282 120.1 300 1800 6029.95 6029.95 10853910 65448534604.502
245	6129926 58260 43820 267282 120.1 300 1800 27.6 5288.0375941589 4684471.1136718 16512932680.209
259	6188186 53321 47867 267282 125.3 300 1748 -1.4019324991421 37.47366067806 11914.79969189 149855.63126209
258	6241507 58671 47867 267282 125.3 300 1748 -2.4595348874573 4.9336974381845 293.42546679929 2932.531728683
257	6300178 56693 47601 267282 125.2 300 1749 0.49651053166017 29.999533721944 51135.854925277 1516093.8117786
256	6356871 42897 47459 267282 125.1 300 1750 6029.95 6029.95 10552412.5 63630519754.376
255	6399768 56679 47459 267282 125.1 300 1750 27.6 5138.1015868065 4422604.0332733 15147648543.595
269	6456447 51909 51817 267282 130.3 300 1698 -1.3505730466586 37.301949534342 11583.89997277 148904.93738989
268	6508356 57088 51817 267282 130.3 300 1698 -2.4308971315622 4.9609708756907 293.39327904134 2941.9771663354
267	6565444 55079 51468 267282 130.2 300 1699 0.48454794709687 29.999841705896 49661.198329522 1472252.6422961
266	6620523 41707 51244 267282 130.1 300 1700 6029.95 6029.95 10250915 61812504904.251
265	6662230 55083 51244 267282 130.1 300 1700 27.6 4990.637445367 4172767.3193538 13882432548.96
279	6717313 50520 57567 267282 135.3 300 1648 -1.3746151473899 38.611267724732 11131.690792624 141088.32144917
278	6767833 55419 57567 267282 135.3 300 1648 -2.4040210968815 4.9614844313204 294.05894049187 2776.6150607609
277	6823252 53479 57213 267282 135.2 300 1649 0.47559398892336 29.999798202363 48129.461685683 1426170.4831363
276	6876731 40517 56982 267282 135.1 300 1650 6029.95 6029.95 9949417.5 59994490054.126
275	6917248 53526 56982 267282 135.1 300 1650 27.6 4837.4580197645 3920910.9798604 12642988011.992
289	6970774 49006 62309 267282 140.3 300 1598 -1.3519183844647 39.03908138889 10941.095267403 141555.49631768
288	7019780 53761 62309 267282 140.3 300 1598 -2.4189241125714 4.9977436804483 293.79723287723 2844.3300071637
287	7073541 51945 61944 267282 140.2 300 1599 0.48812466515228 29.999998997257 46667.134774336 1382877.2334504
286	7125486 39327 61704 267282 140.1 300 1600 6029.95 6029.95 9647920 58176475204.001
285	7164813 51900 61704 267282 140.1 300 1600 27.6 4691.2266926383 3687477.1917244 11530972928.31
299	7216713 47571 67344 267282 145.3 300 1548 -1.3878852798283 36.719467167227 10533.59567483 133632.18610082
298	7264284 52126 67344 267282 145.3 300 1548 -2.3876965296222 4.9987842515111 294.42042370897 2666.3164633389
297	7316410 50352 67058 267282 145.2 300 1549 0.48205461191246 29.999959225941 45134.961621411 1336578.8844025
296	7366762 38137 66814 267282 145.1 300 1550 6029.95 6029.95 9346422.5000001 56358460353.876
295	7404899 50347 66814 267282 145.1 300 1550 27.6 4538.0037524428 3450814.5721362 10438202051.285
39	7455246 82272 946 267282 15.3 300 2848 -1.4159821760771 37.582457017919 18751.720360833 229704.58201535
38	7537518 90826 946 267282 15.3 300 2848 -2.4386584956665 4.9714313622098 293.05456350022 4050.7663189463
37	7628344 87406 937 267282 15.2 300 2849 0.499061015388 29.9999939478 83946.42350422 2495691.3134185
36	7715750 71305 902 267282 15.1 300 2850 3636.1781013146 6029.95 16225187.558791 93580511534.46
35	7787055 81091 902 267282 15.1 300 2850 27.6 6029.95 10912400.093459 53558533872.954
309	7868146 46078 71956 267282 150.3 300 1498 -1.3851313533535 39.730335892998 10228.075058178 129576.28244854
308	7914224 50473 71956 267282 150.3 300 1498 -2.4505410023266 4.96880988474 293.34589970647 2621.012330156
307	7964697 48739 71668 267282 150.2 300 1499 0.47650575690204 29.99990621116 43649.305733791 1292310.5244283
306	8013436 36947 71428 267282 150.1 300 1500 6029.95 6029.95 9044925.0000001 54540445503.751
305	8050383 48744 71428 267282 150.1 300 1500 27.6 4389.4494638063 3228525.1055306 9445871981.4126
319	8099127 44387 76936 267282 155.3 300 1448 -1.3371037874769 39.332432812109 9998.9303993194 129960.49960906
318	8143514 48837 76936 267282 155.3 300 1448 -2.4098834092729 4.986077505815 293.66570044105 2650.795371329
317	8192351 47151 76577 267282 155.2 300 1449 0.48795200281893 29.999771070841 42172.124050205 1248478.6255794
316	8239502 35757 76332 267282 155.1 300 1450 6029.95 6029.95 8743427.5000001 52722430653.626
315	8275259 47184 76332 267282 155.1 300 1450 27.6 4241.7269528158 3015121.8386836 8524688339.9468
329	8322443 43067 82973 267282 160.3 300 1398 -1.3834255990166 36.511010765808 9573.7710305936 122086.23757309
328	8365510 47184 82973 267282 160.3 300 1398 -2.368762299302 4.9572718667332 295.17655181541 2519.7052030639
327	8412694 45590 82680 267282 160.2 300 1399 0.47920840668376 29.999602760305 40718.632793355 1205303.9225635
326	8458284 34567 82435 267282 160.1 300 1400 6029.95 6029.95 8441930.0000002 50904415803.501
325	8492851 45610 82435 267282 160.1 300 1400 27.6 4096.3635929766 2811954.9662096 7677662580.0028
339	8538461 41479 88251 267282 165.3 300 1348 -1.4040162834385 35.865020591075 9313.0117641345 120696.92342173
338	8579940 45500 88251 267282 165.3 300 1348 -2.4105450359639 4.9709724070271 293.32712555281 2495.7087315702
337	8625440 44007 87882 267282 165.2 300 1349 0.47723941612057 29.999453520461 39171.832209511 1158676.329792
336	8669447 33377 87633 267282 165.1 300 1350 6029.95 6029.95 8140432.5000002 49086400953.375