version 2
run General-0-20141230-22:49:37-28869
attr configname General
attr datetime 20141230-22:49:37
attr experiment General
attr inifile omnetpp.ini
attr iterationvars ""
attr iterationvars2 $repetition=0
attr measurement ""
attr network WAVETest
attr processid 28869
attr repetition 0
attr replication #0
attr resultdir results
attr runnumber 0
attr seedset 0

vector 5  WAVETest.node[0].veinsmobility  posx  ETV
vector 6  WAVETest.node[0].veinsmobility  posy  ETV
vector 7  WAVETest.node[0].veinsmobility  speed  ETV
vector 8  WAVETest.node[0].veinsmobility  acceleration  ETV
vector 9  WAVETest.node[0].veinsmobility  co2emission  ETV
vector 15  WAVETest.node[1].veinsmobility  posx  ETV
vector 16  WAVETest.node[1].veinsmobility  posy  ETV
vector 17  WAVETest.node[1].veinsmobility  speed  ETV
vector 18  WAVETest.node[1].veinsmobility  acceleration  ETV
vector 19  WAVETest.node[1].veinsmobility  co2emission  ETV
vector 25  WAVETest.node[2].veinsmobility  posx  ETV
vector 26  WAVETest.node[2].veinsmobility  posy  ETV
vector 27  WAVETest.node[2].veinsmobility  speed  ETV
vector 28  WAVETest.node[2].veinsmobility  acceleration  ETV
vector 29  WAVETest.node[2].veinsmobility  co2emission  ETV
vector 35  WAVETest.node[3].veinsmobility  posx  ETV
vector 36  WAVETest.node[3].veinsmobility  posy  ETV
vector 37  WAVETest.node[3].veinsmobility  speed  ETV
vector 38  WAVETest.node[3].veinsmobility  acceleration  ETV
vector 39  WAVETest.node[3].veinsmobility  co2emission  ETV
vector 45  WAVETest.node[4].veinsmobility  posx  ETV
vector 46  WAVETest.node[4].veinsmobility  posy  ETV
vector 47  WAVETest.node[4].veinsmobility  speed  ETV
vector 48  WAVETest.node[4].veinsmobility  acceleration  ETV
vector 49  WAVETest.node[4].veinsmobility  co2emission  ETV
vector 55  WAVETest.node[5].veinsmobility  posx  ETV
vector 56  WAVETest.node[5].veinsmobility  posy  ETV
vector 57  WAVETest.node[5].veinsmobility  speed  ETV
vector 58  WAVETest.node[5].veinsmobility  acceleration  ETV
vector 59  WAVETest.node[5].veinsmobility  co2emission  ETV
vector 65  WAVETest.node[6].veinsmobility  posx  ETV
vector 66  WAVETest.node[6].veinsmobility  posy  ETV
vector 67  WAVETest.node[6].veinsmobility  speed  ETV
vector 68  WAVETest.node[6].veinsmobility  acceleration  ETV
vector 69  WAVETest.node[6].veinsmobility  co2emission  ETV
vector 75  WAVETest.node[7].veinsmobility  posx  ETV
vector 76  WAVETest.node[7].veinsmobility  posy  ETV
vector 77  WAVETest.node[7].veinsmobility  speed  ETV
vector 78  WAVETest.node[7].veinsmobility  acceleration  ETV
vector 79  WAVETest.node[7].veinsmobility  co2emission  ETV
vector 85  WAVETest.node[8].veinsmobility  posx  ETV
vector 86  WAVETest.node[8].veinsmobility  posy  ETV
vector 87  WAVETest.node[8].veinsmobility  speed  ETV
vector 88  WAVETest.node[8].veinsmobility  acceleration  ETV
vector 89  WAVETest.node[8].veinsmobility  co2emission  ETV
vector 95  WAVETest.node[9].veinsmobility  posx  ETV
vector 96  WAVETest.node[9].veinsmobility  posy  ETV
vector 97  WAVETest.node[9].veinsmobility  speed  ETV
vector 98  WAVETest.node[9].veinsmobility  acceleration  ETV
vector 99  WAVETest.node[9].veinsmobility  co2emission  ETV
vector 105  WAVETest.node[10].veinsmobility  posx  ETV
vector 106  WAVETest.node[10].veinsmobility  posy  ETV
vector 107  WAVETest.node[10].veinsmobility  speed  ETV
vector 108  WAVETest.node[10].veinsmobility  acceleration  ETV
vector 109  WAVETest.node[10].veinsmobility  co2emission  ETV
vector 115  WAVETest.node[11].veinsmobility  posx  ETV
vector 116  WAVETest.node[11].veinsmobility  posy  ETV
vector 117  WAVETest.node[11].veinsmobility  speed  ETV
vector 118  WAVETest.node[11].veinsmobility  acceleration  ETV
vector 119  WAVETest.node[11].veinsmobility  co2emission  ETV
vector 125  WAVETest.node[12].veinsmobility  posx  ETV
vector 126  WAVETest.node[12].veinsmobility  posy  ETV
vector 127  WAVETest.node[12].veinsmobility  speed  ETV
vector 128  WAVETest.node[12].veinsmobility  acceleration  ETV
vector 129  WAVETest.node[12].veinsmobility  co2emission  ETV
vector 135  WAVETest.node[13].veinsmobility  posx  ETV
vector 136  WAVETest.node[13].veinsmobility  posy  ETV
vector 137  WAVETest.node[13].veinsmobility  speed  ETV
vector 138  WAVETest.node[13].veinsmobility  acceleration  ETV
vector 139  WAVETest.node[13].veinsmobility  co2emission  ETV
vector 145  WAVETest.node[14].veinsmobility  posx  ETV
vector 146  WAVETest.node[14].veinsmobility  posy  ETV
vector 147  WAVETest.node[14].veinsmobility  speed  ETV
vector 148  WAVETest.node[14].veinsmobility  acceleration  ETV
vector 149  WAVETest.node[14].veinsmobility  co2emission  ETV
vector 155  WAVETest.node[15].veinsmobility  posx  ETV
vector 156  WAVETest.node[15].veinsmobility  posy  ETV
vector 157  WAVETest.node[15].veinsmobility  speed  ETV
vector 158  WAVETest.node[15].veinsmobility  acceleration  ETV
vector 159  WAVETest.node[15].veinsmobility  co2emission  ETV
vector 165  WAVETest.node[16].veinsmobility  posx  ETV
vector 166  WAVETest.node[16].veinsmobility  posy  ETV
vector 167  WAVETest.node[16].veinsmobility  speed  ETV
vector 168  WAVETest.node[16].veinsmobility  acceleration  ETV
vector 169  WAVETest.node[16].veinsmobility  co2emission  ETV
vector 175  WAVETest.node[17].veinsmobility  posx  ETV
vector 176  WAVETest.node[17].veinsmobility  posy  ETV
vector 177  WAVETest.node[17].veinsmobility  speed  ETV
vector 178  WAVETest.node[17].veinsmobility  acceleration  ETV
vector 179  WAVETest.node[17].veinsmobility  co2emission  ETV
vector 185  WAVETest.node[18].veinsmobility  posx  ETV
vector 186  WAVETest.node[18].veinsmobility  posy  ETV
vector 187  WAVETest.node[18].veinsmobility  speed  ETV
vector 188  WAVETest.node[18].veinsmobility  acceleration  ETV
vector 189  WAVETest.node[18].veinsmobility  co2emission  ETV
vector 195  WAVETest.node[19].veinsmobility  posx  ETV
vector 196  WAVETest.node[19].veinsmobility  posy  ETV
vector 197  WAVETest.node[19].veinsmobility  speed  ETV
vector 198  WAVETest.node[19].veinsmobility  acceleration  ETV
vector 199  WAVETest.node[19].veinsmobility  co2emission  ETV
vector 205  WAVETest.node[20].veinsmobility  posx  ETV
vector 206  WAVETest.node[20].veinsmobility  posy  ETV
vector 207  WAVETest.node[20].veinsmobility  speed  ETV
vector 208  WAVETest.node[20].veinsmobility  acceleration  ETV
vector 209  WAVETest.node[20].veinsmobility  co2emission  ETV
vector 215  WAVETest.node[21].veinsmobility  posx  ETV
vector 216  WAVETest.node[21].veinsmobility  posy  ETV
vector 217  WAVETest.node[21].veinsmobility  speed  ETV
vector 218  WAVETest.node[21].veinsmobility  acceleration  ETV
vector 219  WAVETest.node[21].veinsmobility  co2emission  ETV
vector 225  WAVETest.node[22].veinsmobility  posx  ETV
vector 226  WAVETest.node[22].veinsmobility  posy  ETV
vector 227  WAVETest.node[22].veinsmobility  speed  ETV
vector 228  WAVETest.node[22].veinsmobility  acceleration  ETV
vector 229  WAVETest.node[22].veinsmobility  co2emission  ETV
vector 235  WAVETest.node[23].veinsmobility  posx  ETV
vector 236  WAVETest.node[23].veinsmobility  posy  ETV
vector 237  WAVETest.node[23].veinsmobility  speed  ETV
vector 238  WAVETest.node[23].veinsmobility  acceleration  ETV
vector 239  WAVETest.node[23].veinsmobility  co2emission  ETV
vector 91  WAVETest.node[9].appl  delay:vector  ETV
attr interpolationmode  none
attr source  delay
attr title  "delay time, vector"
vector 92  WAVETest.node[9].appl  distance:vector  ETV
attr interpolationmode  none
attr source  distance
attr title  "distance, vector"
vector 111  WAVETest.node[11].appl  delay:vector  ETV
attr interpolationmode  none
attr source  delay
attr title  "delay time, vector"
vector 112  WAVETest.node[11].appl  distance:vector  ETV
attr interpolationmode  none
attr source  distance
attr title  "distance, vector"
vector 81  WAVETest.node[8].appl  delay:vector  ETV
attr interpolationmode  none
attr source  delay
attr title  "delay time, vector"
vector 82  WAVETest.node[8].appl  distance:vector  ETV
attr interpolationmode  none
attr source  distance
attr title  "distance, vector"
vector 121  WAVETest.node[12].appl  delay:vector  ETV
attr interpolationmode  none
attr source  delay
attr title  "delay time, vector"
vector 122  WAVETest.node[12].appl  distance:vector  ETV
attr interpolationmode  none
attr source  distance
attr title  "distance, vector"
vector 71  WAVETest.node[7].appl  delay:vector  ETV
attr interpolationmode  none
attr source  delay
attr title  "delay time, vector"
vector 72  WAVETest.node[7].appl  distance:vector  ETV
attr interpolationmode  none
attr source  distance
attr title  "distance, vector"
vector 131  WAVETest.node[13].appl  delay:vector  ETV
attr interpolationmode  none
attr source  delay
attr title  "delay time, vector"
vector 132  WAVETest.node[13].appl  distance:vector  ETV
attr interpolationmode  none
attr source  distance
attr title  "distance, vector"
vector 245  WAVETest.node[24].veinsmobility  posx  ETV
vector 246  WAVETest.node[24].veinsmobility  posy  ETV
vector 247  WAVETest.node[24].veinsmobility  speed  ETV
vector 248  WAVETest.node[24].veinsmobility  acceleration  ETV
vector 249  WAVETest.node[24].veinsmobility  co2emission  ETV
9	7	0.3	2.2420559101067
9	10	0.4	2.6945680782324
9	13	0.5	3.0435430686703
9	16	0.6	3.5558119895565
9	19	0.7	3.6648968244183
9	22	0.8	4.3078389920243
9	25	0.9	4.1424682738883
9	28	1	5.1395834398293
9	31	1.1	5.002122431678
9	34	1.2	5.146353587138
9	37	1.3	6.1638293588069
9	40	1.4	6.3949938485477
9	43	1.5	7.3051722849768
9	46	1.6	5.4467860409437
9	49	1.7	9.0777369147956
9	52	1.8	5.6951606816073
9	55	1.9	8.991510178157
9	58	2	8.9297976590767
9	61	2.1	8.8716312936301
9	83	2.2	7.5996642338313
9	86	2.3	7.7302338567401
9	89	2.4	9.5478101391154
9	92	2.5	10.186970509758
9	95	2.6	10.026633200848
9	98	2.7	11.469784990365
9	101	2.8	8.4230130895095
9	104	2.9	9.2090885133297
9	107	3	14.720806539213
9	110	3.1	13.384443222847
9	113	3.2	15.71937808708
9	116	3.3	11.95742817679
9	119	3.4	17.273938943199
9	122	3.5	15.016240277337
9	125	3.6	11.536322481443
9	128	3.7	10.708401440908
9	131	3.8	12.455665884283
9	134	3.9	18.456108617943
9	137	4	12.262071074244
9	140	4.1	12.484990485522
9	143	4.2	11.679566854214
9	146	4.3	16.765581680527
9	149	4.4	13.919631123295
9	152	4.5	14.155602445616
9	155	4.6	17.913663864193
9	158	4.7	17.694156320329
9	161	4.8	15.270599070292
9	164	4.9	16.647047696523
9	167	5	23.253673650956
9	170	5.1	16.919267783182
9	174	5.2	18.150872027295
9	179	5.3	24.399748128171
9	184	5.4	15.250259914842
9	189	5.5	20.642406919887
9	194	5.6	22.377607032847
9	199	5.7	24.749432572212
9	204	5.8	18.62649442594
9	224	5.9	23.106673238733
9	229	6	22.022299489364
9	234	6.1	29.956010254122
9	239	6.2	22.230203598726
9	244	6.3	22.663454730268
9	249	6.4	22.952800937839
9	254	6.5	18.560685782228
9	259	6.6	22.629521946888
9	264	6.7	27.786650800282
9	269	6.8	27.097882106727
9	274	6.9	23.527669409522
9	279	7	33.863105429209
9	284	7.1	24.840267483788
9	320	7.2	25.12482597235
9	325	7.3	33.009378926418
9	330	7.4	34.96638538347
9	335	7.5	32.443743973099
9	340	7.6	32.150678838695
9	345	7.7	29.065600405281
9	350	7.8	31.792148468445
9	355	7.9	22.47944994948
9	360	8	38.669141058489
9	365	8.1	35.808266955846
9	371	8.2	5.8980615517732
9	376	8.3	0.973
9	381	8.4	12.244047592364
9	386	8.5	1.1814822707124
9	391	8.6	9.035677327177
9	396	8.7	6.5821840479899
9	401	8.8	5.9207591806419
9	406	8.9	0.973
9	411	9	14.395872650107
9	416	9.1	3.9829809417881
9	421	9.2	1.9221407838718
9	426	9.3	0.973
9	431	9.4	18.117968411212
9	436	9.5	0.973
9	441	9.6	18.442420815435
9	446	9.7	0.973
9	451	9.8	14.159456653289
9	456	9.9	0.973
9	461	10	11.695100175664
9	466	10.1	2.5820614800055
9	472	10.2	17.698252006851
9	479	10.3	0.973
9	486	10.4	17.352247955263
9	493	10.5	0.973
9	500	10.6	9.9633165733157
9	528	10.7	8.5976144635035
9	535	10.8	-1.2829771879491
9	563	10.9	6.0509777821923
9	570	11	12.54021045042
9	577	11.1	5.2408293668833
9	584	11.2	0.78319848717238
9	591	11.3	0.973
9	598	11.4	7.2625122227305
9	605	11.5	13.176375015907
9	612	11.6	-0.77983370061411
9	619	11.7	12.648618549798
9	626	11.8	7.9473950056459
9	633	11.9	0.973
9	640	12	2.0225563938778
9	647	12.1	10.456530314263
9	697	12.2	2.4387634342794
9	704	12.3	-0.75351048153772
9	711	12.4	17.175935759274
9	718	12.5	0.973
9	725	12.6	2.0031912684519
9	732	12.7	18.228495895059
9	739	12.8	0.973
9	746	12.9	7.4881610056165
9	753	13	6.7021586346753
9	760	13.1	0.973
9	769	13.2	9.3124235774897
9	776	13.3	8.4677422923433
9	783	13.4	3.0120482211737
9	790	13.5	5.4583902288568
9	797	13.6	15.886315840404
9	804	13.7	0.973
9	811	13.8	12.711168443786
9	818	13.9	0.973
9	825	14	16.121385945041
9	832	14.1	5.8229962223666
9	839	14.2	0.973
9	846	14.3	15.118357395235
9	853	14.4	0.973
9	860	14.5	12.808074528913
9	867	14.6	2.3878893701697
9	874	14.7	0.973
9	881	14.8	8.1847835746134
9	888	14.9	11.469720012474
9	895	15	0.973
9	902	15.1	13.122771161216
9	910	15.2	10.813521799621
9	919	15.3	4.8038890881459
9	928	15.4	5.7405158547887
9	937	15.5	0.973
9	946	15.6	12.229125956516
9	982	15.7	-0.21591426738729
9	991	15.8	4.5555162329689
9	1027	15.9	0.43517625089188
9	1036	16	22.469676852871
9	1072	16.1	0.973
9	1081	16.2	8.7732411574172
9	1090	16.3	10.829695881055
9	1099	16.4	0.973
9	1108	16.5	13.106324124995
9	1117	16.6	0.973
9	1126	16.7	14.781242528312
9	1135	16.8	0.973
9	1144	16.9	0.973
9	1153	17	12.183916971297
9	1162	17.1	1.5033696952345
9	1226	17.2	11.001079887802
9	1235	17.3	8.8640528991208
9	1244	17.4	0.973
9	1253	17.5	14.273851733063
9	1262	17.6	8.1072749994392
9	1271	17.7	0.45336231322721
9	1280	17.8	3.8349919826805
9	1289	17.9	11.430077570994
9	1298	18	0.973
9	1307	18.1	7.5814619187248
9	1319	18.2	0.973
9	1328	18.3	10.884866723967
9	1337	18.4	16.659766533612
9	1346	18.5	-0.36894414546415
9	1355	18.6	0.18208273124041
9	1364	18.7	4.2736663943671
9	1373	18.8	11.441042519492
9	1382	18.9	6.6240780203658
9	1391	19	0.973
9	1400	19.1	0.32110726151054
9	1409	19.2	17.539770616364
9	1418	19.3	0.25715066032306
9	1427	19.4	10.642758870113
9	1436	19.5	2.0199527062111
9	1445	19.6	6.7717561462606
9	1454	19.7	0.973
9	1463	19.8	11.248629071346
9	1472	19.9	1.4142786449236
9	1481	20	7.7338704673112
9	1490	20.1	12.633352587566
9	1500	20.2	1.2267447942416
9	1511	20.3	0.973
9	1555	20.4	17.030947655989
9	1566	20.5	5.7311525894761
9	1577	20.6	1.512124184241
9	1621	20.7	-0.65379012685025
9	1632	20.8	0.8721847114546
9	1676	20.9	15.930074216901
9	1687	21	0.973
9	1731	21.1	18.730823206187
9	1742	21.2	0.973
9	1753	21.3	13.353062043416
9	1764	21.4	8.5121369716737
9	1775	21.5	0.973
9	1786	21.6	16.326688615833
9	1797	21.7	0.973
9	1808	21.8	11.961302068303
9	1819	21.9	6.3048137763042
9	1830	22	6.3612396549811
9	1841	22.1	-1.1951443218164
9	1907	22.2	-1.0670480656715
9	1918	22.3	14.156319406254
9	1929	22.4	8.0516357388766
9	1940	22.5	0.973
9	1951	22.6	8.2681265020959
9	1962	22.7	14.411425034764
9	1973	22.8	5.1280008944346
9	1984	22.9	0.973
9	1995	23	15.117462112638
9	2006	23.1	1.3047367741882
9	2020	23.2	5.3837812125506
9	2031	23.3	0.973
9	2042	23.4	17.156716889584
9	2053	23.5	0.973
9	2064	23.6	2.8862140626172
9	2075	23.7	17.827728365391
9	2086	23.8	-0.39974533384886
9	2097	23.9	0.973
9	2108	24	20.367215291333
9	2119	24.1	0.973
9	2130	24.2	2.1782172016084
9	2141	24.3	6.6139324265297
9	2152	24.4	2.7550820170507
9	2163	24.5	11.43921655954
9	2174	24.6	7.5379783669884
9	2185	24.7	6.7580384994565
9	2196	24.8	0.973
9	2207	24.9	11.639326050716
9	2218	25	0.973
9	2229	25.1	17.203070329705
9	2274	25.2	2.6302567070184
9	2287	25.3	-0.34113756823817
9	2339	25.4	5.033995916885
9	2352	25.5	0.973
9	2365	25.6	16.977648997984
9	2417	25.7	6.7937313944216
9	2430	25.8	0.973
9	2470	25.9	13.921700840916
9	2483	26	8.1081341548246
9	2535	26.1	6.5902718256694
9	2548	26.2	-1.3664516413639
9	2561	26.3	2.1232721399921
9	2574	26.4	8.3635911197328
9	2587	26.5	8.7810796392326
9	2600	26.6	8.8300837661818
9	2613	26.7	0.973
9	2626	26.8	19.683683683155
9	2639	26.9	0.973
9	2652	27	17.670338344657
9	2665	27.1	5.7967920458929
9	2733	27.2	1.8135198100138
9	2746	27.3	-0.076756666367169
9	2759	27.4	2.7987225869791
9	2772	27.5	15.786503093443
9	2785	27.6	0.973
9	2798	27.7	17.451136168047
9	2811	27.8	8.4865139186465
9	2824	27.9	0.973
9	2837	28	1.5421803764792
9	2850	28.1	14.166730581537
9	2866	28.2	8.6925749427293
9	2879	28.3	0.973
9	2892	28.4	3.1275715084785
9	2905	28.5	5.0244937238237
9	2918	28.6	4.4822427615694
9	2931	28.7	21.251588686884
9	2944	28.8	-1.2228456379767
9	2957	28.9	5.6478298234982
9	2970	29	2.0587149939694
9	2983	29.1	-1.2916405372412
9	2996	29.2	16.304508930341
9	3009	29.3	5.4521568977811
9	3022	29.4	2.7782127394387
9	3035	29.5	5.739141333831
9	3048	29.6	10.193789301628
9	3061	29.7	4.0334590127255
9	3074	29.8	0.973
9	3087	29.9	13.617825848509
9	3100	30	0.973
9	3113	30.1	20.390979784523
9	3199	30.2	-1.1466802709011
9	3214	30.3	2.6736966352176
9	3274	30.4	2.8561773756763
9	3289	30.5	14.486082944905
9	3304	30.6	0.973
9	3352	30.7	4.5632530384564
9	3367	30.8	9.9524109015518
9	3409	30.9	17.109276684551
9	3424	31	0.973
9	3484	31.1	-0.51823512297465
9	3499	31.2	8.7457550668123
9	3514	31.3	4.953818893156
9	3529	31.4	-0.42654866535209
9	3544	31.5	19.618960851566
9	3559	31.6	0.973
9	3574	31.7	11.377490979855
9	3589	31.8	3.8667577624154
9	3604	31.9	0.50183799034602
9	3619	32	20.401289105584
9	3634	32.1	2.7550574610232
9	3704	32.2	0.973
9	3719	32.3	22.994632876028
9	3734	32.4	0.973
9	3749	32.5	10.013813126615
9	3764	32.6	5.660039689696
9	3779	32.7	0.96336400235641
9	3794	32.8	5.0391654258607
9	3809	32.9	0.973
9	3824	33	8.0715241158637
9	3839	33.1	17.675723618178
9	3857	33.2	5.9654030855044
9	3872	33.3	0.973
9	3887	33.4	18.841875532424
9	3902	33.5	6.0321075193001
9	3917	33.6	-0.8834909997961
9	3932	33.7	0.973
9	3947	33.8	10.722582011083
9	3962	33.9	-0.67491632941332
9	3977	34	12.931636318036
9	3992	34.1	12.59064205305
9	4007	34.2	0.973
9	4022	34.3	5.0243791224428
9	4037	34.4	1.1421829511497
9	4052	34.5	3.9723726151006
9	4067	34.6	9.8267626730639
9	4082	34.7	2.1935539679314
9	4097	34.8	2.4542117777873
9	4112	34.9	5.3800990344893
9	4127	35	10.027109639254
9	4142	35.1	5.9084459177708
9	4242	35.2	4.6995574302383
9	4259	35.3	7.7740546225639
9	4327	35.4	7.8609432361136
9	4377	35.5	0.973
9	4394	35.6	11.151120693432
9	4444	35.7	-0.71671513849453
9	4461	35.8	11.480136450541
9	4505	35.9	0.973
9	4522	36	12.130916011708
9	4578	36.1	6.6100289894444
9	4595	36.2	9.2132230017921
9	4612	36.3	0.973
9	4629	36.4	-1.3584732296116
9	4646	36.5	5.6205743224643
9	4663	36.6	15.094632166967
9	4680	36.7	0.973
9	4697	36.8	4.5933463506961
9	4714	36.9	3.4475968310046
9	4731	37	18.561553595986
9	4748	37.1	0.75675524614505
9	4820	37.2	10.710452134111
9	4837	37.3	5.7058588651558
9	4854	37.4	-0.78412086487755
9	4871	37.5	1.9179179040663
9	4888	37.6	8.7090750926771
9	4905	37.7	11.405194958445
9	4922	37.8	0.973
9	4939	37.9	3.4031634263685
9	4956	38	16.010712724985
9	4973	38.1	6.9424922319264
9	4993	38.2	-0.46878255211293
9	5010	38.3	10.077762025622
9	5027	38.4	0.973
9	5044	38.5	6.3450340314488
9	5061	38.6	1.6299767895809
9	5078	38.7	13.967948589198
9	5095	38.8	4.0255233899934
9	5112	38.9	6.8189496000548
9	5129	39	11.708832075192
9	5146	39.1	1.9366162889752
9	5163	39.2	0.973
9	5180	39.3	11.066035922236
9	5197	39.4	0.082093263812637
9	5214	39.5	11.146142535806
9	5231	39.6	6.81291247132
9	5248	39.7	-0.29270373955244
9	5265	39.8	3.7708236144366
9	5282	39.9	16.84953464975
9	5299	40	-0.50765070499582
9	5316	40.1	0.973
9	5430	40.2	5.9958930376088
9	5449	40.3	16.151936107086
9	5513	40.4	6.4694035670512
9	5604	40.5	0.14832585992957
9	5623	40.6	0.973
9	5675	40.7	17.806631449808
9	5694	40.8	5.2764714663644
9	5740	40.9	-0.40255388897128
9	5759	41	5.7787791844506
9	5817	41.1	0.973
9	5836	41.2	14.991374081516
9	5855	41.3	0.973
9	5874	41.4	14.536067655149
9	5893	41.5	0.973
9	5912	41.6	7.6301744049066
9	5931	41.7	12.029982359452
9	5950	41.8	0.973
9	5969	41.9	20.645447636564
9	5988	42	0.973
9	6007	42.1	13.031735564854
9	6081	42.2	11.353781441991
9	6100	42.3	1.0971874684327
9	6119	42.4	0.973
9	6138	42.5	7.3745353361086
9	6157	42.6	10.832578560249
9	6176	42.7	0.973
9	6195	42.8	14.978018448174
9	6214	42.9	0.973
9	6233	43	11.304413816519
9	6252	43.1	9.3203981176185
9	6274	43.2	3.2720080569655
9	6293	43.3	10.576651632948
9	6312	43.4	5.4064181468256
9	6331	43.5	-0.49473656358808
9	6350	43.6	6.3758790760125
9	6369	43.7	7.4519854733126
9	6388	43.8	7.1720769370183
9	6407	43.9	0.973
9	6426	44	4.321137182444
9	6445	44.1	14.816312891316
9	6464	44.2	5.0231533254593
9	6483	44.3	0.091303367755919
9	6502	44.4	7.6496406431195
9	6521	44.5	12.711779933297
9	6540	44.6	0.973
9	6559	44.7	13.188997792087
9	6578	44.8	6.8075776909745
9	6597	44.9	2.4627468436652
9	6616	45	-0.62696271681234
9	6635	45.1	0.973
9	6751	45.2	4.7406876879806
9	6772	45.3	23.052389801364
9	6838	45.4	0.0031475002724695
9	6976	45.5	8.1620164875342
9	6997	45.6	-0.1819091121182
9	7051	45.7	11.780234659631
9	7072	45.8	0.973
9	7120	45.9	8.6696855760001
9	7141	46	18.295902529384
9	7201	46.1	-0.038231591583167
9	7222	46.2	0.973
9	7243	46.3	4.5860268191784
9	7264	46.4	11.381315517157
9	7285	46.5	0.973
9	7306	46.6	9.6100811783944
9	7327	46.7	9.5703140897873
9	7348	46.8	4.3813414127346
9	7369	46.9	10.525187970701
9	7390	47	0.973
9	7411	47.1	0.973
9	7487	47.2	18.353172251693
9	7508	47.3	6.0979336072295
9	7529	47.4	0.71460750189913
9	7550	47.5	7.6769052676461
9	7571	47.6	-0.53176250317759
9	7592	47.7	1.3693927322207
9	7613	47.8	17.122758254182
9	7634	47.9	2.4988279763803
9	7655	48	0.973
9	7676	48.1	14.912359051435
9	7700	48.2	-0.716432815053
9	7721	48.3	9.9618796891172
9	7742	48.4	0.973
9	7763	48.5	16.973321437461
9	7784	48.6	0.973
9	7805	48.7	4.3397975565676
9	7826	48.8	3.7132849575021
9	7847	48.9	9.059326071447
9	7868	49	5.2033605908729
9	7889	49.1	6.548025307464
9	7910	49.2	0.47673885209087
9	7931	49.3	15.144662878237
9	7952	49.4	3.2952889390914
9	7973	49.5	7.6081870863495
9	7994	49.6	0.973
9	8015	49.7	13.779640130606
9	8036	49.8	9.0309400431273
9	8057	49.9	0.973
9	8078	50	4.4281227914699
9	8099	50.1	7.875552696954
9	8244	50.2	1.8334093869518
9	8267	50.3	18.005223948309
9	8335	50.4	0.973
9	8493	50.5	2.0163586543715
9	8516	50.6	1.8572355353902
9	8572	50.7	22.453603412907
9	8595	50.8	0.973
9	8645	50.9	7.2849325911149
9	8668	51	6.53949072231
9	8730	51.1	0.024911305602339
9	8753	51.2	15.204783716703
9	8776	51.3	2.9278743462841
9	8799	51.4	11.917065653293
9	8822	51.5	3.409516013036
9	8845	51.6	0.973
9	8868	51.7	16.145515423312
9	8891	51.8	0.973
9	8914	51.9	6.2260400770873
9	8937	52	12.733924565751
9	8960	52.1	7.2307243243137
9	9038	52.2	0.973
9	9061	52.3	4.5631066443099
9	9084	52.4	19.360871320594
9	9107	52.5	5.1581995893654
9	9130	52.6	0.973
9	9153	52.7	-0.071056932341284
9	9176	52.8	14.324203910043
9	9199	52.9	8.60940606137
9	9222	53	0.973
9	9245	53.1	7.3548277047552
9	9271	53.2	10.291680328741
9	9294	53.3	5.2067088380071
9	9317	53.4	0.973
9	9340	53.5	5.3322793587735
9	9363	53.6	21.964099585061
9	9386	53.7	0.973
9	9409	53.8	16.346770661505
9	9432	53.9	0.973
9	9455	54	2.9208059169006
9	9478	54.1	13.539111868658
9	9501	54.2	-0.80199198844212
9	9524	54.3	12.016166138518
9	9547	54.4	-0.32180039794351
9	9570	54.5	14.249222516563
9	9593	54.6	6.7315251490525
9	9616	54.7	0.973
9	9639	54.8	0.61434791917484
9	9662	54.9	19.532701827271
9	9685	55	0.973
9	9708	55.1	17.531844763328
9	9894	55.2	2.7659274484388
9	9919	55.3	0.973
9	9989	55.4	11.54507018234
9	10155	55.5	14.13523334339
9	10180	55.6	0.973
9	10238	55.7	9.5561308371446
9	10263	55.8	13.770048458642
9	10315	55.9	0.973
9	10340	56	13.655386842816
9	10404	56.1	7.012192367138
9	10429	56.2	5.3183376531099
9	10454	56.3	5.7343849237751
9	10479	56.4	7.56554081956
9	10504	56.5	4.0073582592045
9	10529	56.6	1.1375936549372
9	10554	56.7	1.1780864639121
9	10579	56.8	13.963193532202
9	10604	56.9	0.973
9	10629	57	13.983799414476
9	10654	57.1	7.2722768322831
9	10734	57.2	0.973
9	10759	57.3	8.4419975994108
9	10784	57.4	0.973
9	10809	57.5	8.4098514917698
9	10834	57.6	7.9048445328706
9	10859	57.7	6.4647883220281
9	10884	57.8	5.8140674878343
9	10909	57.9	0.973
9	10934	58	11.295395798142
9	10959	58.1	2.5232911693167
9	10987	58.2	12.784445931491
9	11012	58.3	-0.13457787560631
9	11037	58.4	12.696528182378
9	11062	58.5	4.3606953377548
9	11087	58.6	0.973
9	11112	58.7	5.2032824806026
9	11137	58.8	13.367600572432
9	11162	58.9	6.9192738893909
9	11187	59	0.49107356120297
9	11212	59.1	-1.06045661968
9	11237	59.2	7.1523688876826
9	11262	59.3	6.7686885590941
9	11287	59.4	8.7180646556848
9	11312	59.5	0.973
9	11337	59.6	14.610707089963
9	11362	59.7	10.414846263667
9	11387	59.8	4.4369898430337
9	11412	59.9	-0.18766085392351
9	11437	60	0.28010740318707
9	11462	60.1	5.6411632718403
9	11662	60.2	4.3707903002158
9	11689	60.3	14.895746107516
9	11761	60.4	3.8203564164633
9	11962	60.5	0.973
9	11989	60.6	16.673435635398
9	12049	60.7	0.973
9	12076	60.8	4.3801596913555
9	12130	60.9	18.605982026825
9	12157	61	0.973
9	12223	61.1	9.7737719714956
9	12250	61.2	4.8275157323779
9	12277	61.3	7.0122682175211
9	12304	61.4	0.973
9	12331	61.5	11.212795775051
9	12358	61.6	12.520945510168
9	12385	61.7	0.973
9	12412	61.8	0.64969238483053
9	12439	61.9	15.839970271988
9	12466	62	5.3209140745081
9	12493	62.1	0.973
9	12575	62.2	11.182385678863
9	12602	62.3	10.769500766475
9	12629	62.4	0.973
9	12656	62.5	5.7337486394731
9	12683	62.6	7.9889633377147
9	12710	62.7	8.9868905106368
9	12737	62.8	8.509980275606
9	12764	62.9	0.973
9	12791	63	10.048936389874
9	12818	63.1	17.846475486762
9	12848	63.2	0.973
9	12875	63.3	7.2966838687577
9	12902	63.4	7.9866049863251
9	12929	63.5	0.973
9	12956	63.6	8.5495221725447
9	12983	63.7	6.5803750779233
9	13010	63.8	0.973
9	13037	63.9	14.512569723849
9	13064	64	0.973
9	13091	64.1	10.038115962306
9	13118	64.2	4.9374968790618
9	13145	64.3	14.13669711468
9	13172	64.4	0.973
9	13199	64.5	4.3631377680665
9	13226	64.6	18.575275645845
9	13253	64.7	1.3534932988352
9	13280	64.8	0.78148876858299
9	13307	64.9	12.343772769603
9	13334	65	0.973
9	13361	65.1	4.9624047732585
9	13575	65.2	7.4254256861496
9	13604	65.3	1.0533479699935
9	13678	65.4	3.0275951789657
9	13881	65.5	13.800987761355
9	13943	65.6	5.0237372413346
9	14005	65.7	1.4372900719275
9	14034	65.8	7.0969545917981
9	14090	65.9	4.4828451666334
9	14119	66	10.445166486277
9	14187	66.1	2.6534246600916
9	14216	66.2	0.973
9	14245	66.3	13.195934117914
9	14274	66.4	9.6164305877964
9	14303	66.5	0.973
9	14332	66.6	6.9276474025707
9	14361	66.7	18.849771543141
9	14390	66.8	0.973
9	14419	66.9	13.156989749164
9	14448	67	-1.0400651712622
9	14477	67.1	16.334153050637
9	14561	67.2	7.9439556013035
9	14590	67.3	-0.52363385347096
9	14619	67.4	0.973
9	14648	67.5	14.297646527988
9	14677	67.6	0.973
9	14706	67.7	8.9773203213579
9	14735	67.8	11.283283710403
9	14764	67.9	0.973
9	14793	68	12.525998146807
9	14822	68.1	6.0607464448082
9	14854	68.2	2.3019065434229
9	14883	68.3	0.55187260666706
9	14912	68.4	7.4935052073342
9	14941	68.5	14.208387472034
9	14970	68.6	0.973
9	14999	68.7	14.914350667257
9	15028	68.8	6.6775331636923
9	15057	68.9	0.973
9	15086	69	11.334661961652
9	15115	69.1	12.323715001246
9	15144	69.2	0.973
9	15173	69.3	14.226381810448
9	15202	69.4	2.1646628786363
9	15231	69.5	3.1851689444312
9	15260	69.6	0.973
9	15289	69.7	20.206215003164
9	15318	69.8	4.1081587749802
9	15347	69.9	6.1750082653018
9	15376	70	0.973
9	15405	70.1	3.6329763865948
9	15621	70.2	4.22273043569
9	15652	70.3	15.12800306486
9	15728	70.4	-1.0288478867823
9	15939	70.5	16.728036838916
9	16009	70.6	1.8304441280072
9	16073	70.7	2.558121961599
9	16137	70.8	2.298072342966
9	16195	70.9	0.973
9	16226	71	7.4233502894293
9	16296	71.1	13.604811332936
9	16327	71.2	8.0256789978821
9	16358	71.3	0.973
9	16389	71.4	16.302116795111
9	16420	71.5	0.973
9	16451	71.6	8.9480046717635
9	16482	71.7	13.949340929948
9	16513	71.8	4.2260931019972
9	16544	71.9	0.973
9	16575	72	19.509150471613
9	16606	72.1	1.1667493655718
9	16692	72.2	7.8138747691891
9	16723	72.3	-0.58542572831561
9	16754	72.4	0.83040771559422
9	16785	72.5	6.9566431918671
9	16816	72.6	0.99932993900404
9	16847	72.7	7.9324006080233
9	16878	72.8	2.9404606997153
9	16909	72.9	19.093680705343
9	16940	73	0.973
9	16971	73.1	20.564826224279
9	17005	73.2	1.1071923132757
9	17036	73.3	0.973
9	17067	73.4	5.1164965194333
9	17098	73.5	1.691437471867
9	17129	73.6	9.4754292576557
9	17160	73.7	2.3245022492125
9	17191	73.8	6.5531750545087
9	17222	73.9	8.967683259601
9	17253	74	11.528060866777
9	17284	74.1	0.973
9	17315	74.2	15.245070430509
9	17346	74.3	0.56523867288256
9	17377	74.4	10.430039417242
9	17408	74.5	0.973
9	17439	74.6	4.1161302658185
9	17470	74.7	6.2269224484977
9	17501	74.8	9.4524812570625
9	17532	74.9	0.38640042552222
9	17563	75	3.3699589654798
9	17594	75.1	2.0491448521135
9	17806	75.2	13.09788370603
9	17839	75.3	8.8943956463106
9	17917	75.4	-0.39616144283832
9	18169	75.5	0.973
9	18247	75.6	20.999396069722
9	18313	75.7	0.973
9	18385	75.8	12.659007062756
9	18445	75.9	0.973
9	18478	76	1.5730927581853
9	18550	76.1	10.945112066094
9	18583	76.2	-1.1994430783396
9	18616	76.3	2.7562745985292
9	18649	76.4	7.4050309361778
9	18682	76.5	6.7076994757453
9	18715	76.6	13.225605950103
9	18748	76.7	0.973
9	18781	76.8	20.757076548273
9	18814	76.9	0.973
9	18847	77	1.1945549692669
9	18880	77.1	15.499698074287
9	18968	77.2	-1.2017386063481
9	19001	77.3	9.4607925327334
9	19034	77.4	3.8939103332363
9	19067	77.5	0.42486444066223
9	19100	77.6	7.2074730564527
9	19133	77.7	0.12157781590739
9	19166	77.8	10.15501125128
9	19199	77.9	6.0525031111719
9	19232	78	11.348647575011
9	19265	78.1	0.973
9	19301	78.2	18.556526252537
9	19334	78.3	0.973
9	19367	78.4	16.576827526684
9	19400	78.5	6.9868502596355
9	19433	78.6	-0.54577966234979
9	19466	78.7	13.950482663698
9	19499	78.8	0.973
9	19532	78.9	12.464744264564
9	19565	79	-0.83219618346929
9	19598	79.1	-1.2138588113138
9	19631	79.2	15.125959691048
9	19664	79.3	-0.17759791335061
9	19697	79.4	-0.41813679269142
9	19730	79.5	14.059326579321
9	19763	79.6	0.973
9	19796	79.7	6.1255356663346
9	19829	79.8	14.016209735036
9	19862	79.9	0.046450794824478
9	19895	80	6.9425439963929
9	19928	80.1	13.092640086738
9	20142	80.2	0.973
9	20177	80.3	9.0779075323022
9	20290	80.4	0.973
9	20544	80.5	15.287856771928
9	20630	80.6	0.973