version 2
run nodebug-0-20141222-20:54:58-669
attr configname nodebug
attr datetime 20141222-20:54:58
attr experiment nodebug
attr inifile omnetpp.ini
attr iterationvars ""
attr iterationvars2 $repetition=0
attr measurement ""
attr network WAVETest
attr processid 669
attr repetition 0
attr replication #0
attr resultdir results
attr runnumber 0
attr seedset 0

vector 2  WAVETest.node[0].veinsmobility  posx  ETV
vector 3  WAVETest.node[0].veinsmobility  posy  ETV
vector 4  WAVETest.node[0].veinsmobility  speed  ETV
vector 5  WAVETest.node[0].veinsmobility  acceleration  ETV
vector 6  WAVETest.node[0].veinsmobility  co2emission  ETV
vector 9  WAVETest.node[1].veinsmobility  posx  ETV
vector 10  WAVETest.node[1].veinsmobility  posy  ETV
vector 11  WAVETest.node[1].veinsmobility  speed  ETV
vector 12  WAVETest.node[1].veinsmobility  acceleration  ETV
vector 13  WAVETest.node[1].veinsmobility  co2emission  ETV
vector 16  WAVETest.node[2].veinsmobility  posx  ETV
vector 17  WAVETest.node[2].veinsmobility  posy  ETV
vector 18  WAVETest.node[2].veinsmobility  speed  ETV
vector 19  WAVETest.node[2].veinsmobility  acceleration  ETV
vector 20  WAVETest.node[2].veinsmobility  co2emission  ETV
vector 23  WAVETest.node[3].veinsmobility  posx  ETV
vector 24  WAVETest.node[3].veinsmobility  posy  ETV
vector 25  WAVETest.node[3].veinsmobility  speed  ETV
vector 26  WAVETest.node[3].veinsmobility  acceleration  ETV
vector 27  WAVETest.node[3].veinsmobility  co2emission  ETV
vector 30  WAVETest.node[4].veinsmobility  posx  ETV
vector 31  WAVETest.node[4].veinsmobility  posy  ETV
vector 32  WAVETest.node[4].veinsmobility  speed  ETV
vector 33  WAVETest.node[4].veinsmobility  acceleration  ETV
vector 34  WAVETest.node[4].veinsmobility  co2emission  ETV
vector 37  WAVETest.node[5].veinsmobility  posx  ETV
vector 38  WAVETest.node[5].veinsmobility  posy  ETV
vector 39  WAVETest.node[5].veinsmobility  speed  ETV
vector 40  WAVETest.node[5].veinsmobility  acceleration  ETV
vector 41  WAVETest.node[5].veinsmobility  co2emission  ETV
vector 44  WAVETest.node[6].veinsmobility  posx  ETV
vector 45  WAVETest.node[6].veinsmobility  posy  ETV
vector 46  WAVETest.node[6].veinsmobility  speed  ETV
vector 47  WAVETest.node[6].veinsmobility  acceleration  ETV
vector 48  WAVETest.node[6].veinsmobility  co2emission  ETV
vector 51  WAVETest.node[7].veinsmobility  posx  ETV
vector 52  WAVETest.node[7].veinsmobility  posy  ETV
vector 53  WAVETest.node[7].veinsmobility  speed  ETV
vector 54  WAVETest.node[7].veinsmobility  acceleration  ETV
vector 55  WAVETest.node[7].veinsmobility  co2emission  ETV
vector 58  WAVETest.node[8].veinsmobility  posx  ETV
vector 59  WAVETest.node[8].veinsmobility  posy  ETV
vector 60  WAVETest.node[8].veinsmobility  speed  ETV
vector 61  WAVETest.node[8].veinsmobility  acceleration  ETV
vector 62  WAVETest.node[8].veinsmobility  co2emission  ETV
6	7	0.3	2.2420559101067
6	10	0.4	2.6945680782324
6	13	0.5	3.0435430686703
6	16	0.6	3.5558119895565
6	19	0.7	3.6648968244183
6	22	0.8	4.3078389920243
6	25	0.9	4.1424682738883
6	28	1	5.1395834398293
6	31	1.1	5.002122431678
6	34	1.2	5.146353587138
6	37	1.3	6.1638293588069
6	40	1.4	6.3949938485477
6	43	1.5	7.3051722849768
6	46	1.6	5.4467860409437
6	49	1.7	9.0777369147956
6	52	1.8	5.6951606816073
6	55	1.9	8.991510178157
6	58	2	8.9297976590767
6	61	2.1	8.8716312936301
6	83	2.2	7.5996642338313
6	86	2.3	7.7302338567401
6	89	2.4	9.5478101391154
6	92	2.5	10.186970509758
6	95	2.6	10.026633200848
6	98	2.7	11.469784990365
6	101	2.8	8.4230130895095
6	104	2.9	9.2090885133297
6	107	3	14.720806539213
6	110	3.1	13.384443222847
6	113	3.2	15.71937808708
6	116	3.3	11.95742817679
6	119	3.4	17.273938943199
6	122	3.5	15.016240277337
6	125	3.6	11.536322481443
6	128	3.7	10.708401440908
6	131	3.8	12.455665884283
6	134	3.9	18.456108617943
6	137	4	12.262071074244
6	140	4.1	12.484990485522
6	143	4.2	11.679566854214
6	146	4.3	16.765581680527
6	149	4.4	13.919631123295
6	152	4.5	14.155602445616
6	155	4.6	17.913663864193
6	158	4.7	17.694156320329
6	161	4.8	15.270599070292
6	164	4.9	16.647047696523
6	167	5	23.253673650956
6	170	5.1	16.919267783182
6	174	5.2	18.150872027295
6	179	5.3	24.399748128171
6	184	5.4	15.250259914842
6	204	5.5	20.642406919887
6	209	5.6	22.377607032847
6	214	5.7	24.749432572212
6	219	5.8	18.62649442594
6	224	5.9	23.106673238733
6	229	6	22.022299489364
6	234	6.1	29.956010254122
6	239	6.2	22.230203598726
6	244	6.3	22.663454730268
6	249	6.4	22.952800937839
6	254	6.5	18.560685782228
6	259	6.6	22.629521946888
6	264	6.7	27.786650800282
6	269	6.8	27.097882106727
6	274	6.9	23.527669409522
6	279	7	33.863105429209
6	284	7.1	24.840267483788
6	320	7.2	25.12482597235
6	356	7.3	33.009378926418
6	361	7.4	34.96638538347
6	366	7.5	32.443743973099
6	371	7.6	32.150678838695
6	376	7.7	29.065600405281
6	381	7.8	31.792148468445
6	386	7.9	22.47944994948
6	391	8	38.669141058489
6	396	8.1	35.808266955846
6	402	8.2	5.8980615517732
6	408	8.3	0.973
6	413	8.4	12.244047592364
6	418	8.5	1.1814822707124
6	423	8.6	9.035677327177
6	428	8.7	6.5821840479899
6	433	8.8	5.9207591806419
6	438	8.9	0.973
6	443	9	14.395872650107
6	448	9.1	3.9829809417881
6	453	9.2	1.9221407838718
6	458	9.3	0.973
6	463	9.4	18.117968411212
6	468	9.5	0.973
6	473	9.6	18.442420815435
6	478	9.7	0.973
6	483	9.8	14.159456653289
6	488	9.9	0.973
6	493	10	11.695100175664
6	498	10.1	2.5820614800055
6	504	10.2	17.698252006851
6	511	10.3	0.973
6	518	10.4	17.352247955263
6	546	10.5	0.973
6	553	10.6	9.9633165733157
6	581	10.7	8.5976144635035
6	588	10.8	-1.2829771879491
6	595	10.9	6.0509777821923
6	602	11	12.54021045042
6	609	11.1	5.2408293668833
6	616	11.2	0.78319848717238
6	623	11.3	0.973
6	630	11.4	7.2625122227305
6	637	11.5	13.176375015907
6	644	11.6	-0.77983370061411
6	651	11.7	12.648618549798
6	658	11.8	7.9473950056459
6	665	11.9	0.973
6	672	12	2.0225563938778
6	679	12.1	10.456530314263
6	729	12.2	2.4387634342794
6	820	12.3	-0.75351048153772
6	827	12.4	17.175935759274
6	834	12.5	0.973
6	841	12.6	2.0031912684519
6	848	12.7	18.228495895059
6	855	12.8	0.973
6	862	12.9	7.4881610056165
6	869	13	6.7021586346753
6	876	13.1	0.973
6	885	13.2	9.3124235774897
6	895	13.3	8.4677422923433
6	902	13.4	3.0120482211737
6	909	13.5	5.4583902288568
6	916	13.6	15.886315840404
6	923	13.7	0.973
6	930	13.8	12.711168443786
6	937	13.9	0.973
6	944	14	16.121385945041
6	951	14.1	5.8229962223666
6	958	14.2	0.973
6	965	14.3	15.118357395235
6	972	14.4	0.973
6	979	14.5	12.808074528913
6	986	14.6	2.3878893701697
6	993	14.7	0.973
6	1000	14.8	8.1847835746134
6	1007	14.9	11.469720012474
6	1014	15	0.973
6	1021	15.1	13.122771161216
6	1056	15.2	10.813521799621
6	1065	15.3	4.8038890881459
6	1074	15.4	5.7405158547887
6	1110	15.5	0.973
6	1119	15.6	12.229125956516
6	1155	15.7	-0.21591426738729
6	1164	15.8	4.5555162329689
6	1173	15.9	0.43517625089188
6	1182	16	22.469676852871
6	1191	16.1	0.973
6	1200	16.2	8.7732411574172
6	1209	16.3	10.829695881055
6	1218	16.4	0.973
6	1227	16.5	13.106324124995
6	1236	16.6	0.973
6	1245	16.7	14.781242528312
6	1254	16.8	0.973
6	1263	16.9	0.973
6	1272	17	12.183916971297
6	1281	17.1	1.5033696952345
6	1345	17.2	11.001079887802
6	1513	17.3	8.8640528991208
6	1522	17.4	0.973
6	1531	17.5	14.273851733063
6	1540	17.6	8.1072749994392
6	1549	17.7	0.45336231322721
6	1558	17.8	3.8349919826805
6	1567	17.9	11.430077570994
6	1576	18	0.973
6	1585	18.1	7.5814619187248
6	1597	18.2	0.973
6	1612	18.3	10.884866723967
6	1621	18.4	16.659766533612
6	1630	18.5	-0.36894414546415
6	1639	18.6	0.18208273124041
6	1648	18.7	4.2736663943671
6	1657	18.8	11.441042519492
6	1666	18.9	6.6240780203658
6	1675	19	0.973
6	1684	19.1	0.32110726151054
6	1693	19.2	17.539770616364
6	1702	19.3	0.25715066032306
6	1711	19.4	10.642758870113
6	1720	19.5	2.0199527062111
6	1729	19.6	6.7717561462606
6	1738	19.7	0.973
6	1747	19.8	11.248629071346
6	1756	19.9	1.4142786449236
6	1765	20	7.7338704673112
6	1774	20.1	12.633352587566
6	1817	20.2	1.2267447942416
6	1828	20.3	0.973
6	1839	20.4	17.030947655989
6	1883	20.5	5.7311525894761
6	1927	20.6	1.512124184241
6	1971	20.7	-0.65379012685025
6	1982	20.8	0.8721847114546
6	1993	20.9	15.930074216901
6	2004	21	0.973
6	2015	21.1	18.730823206187
6	2026	21.2	0.973
6	2037	21.3	13.353062043416
6	2048	21.4	8.5121369716737
6	2059	21.5	0.973
6	2070	21.6	16.326688615833
6	2081	21.7	0.973
6	2092	21.8	11.961302068303
6	2103	21.9	6.3048137763042
6	2114	22	6.3612396549811
6	2125	22.1	-1.1951443218164
6	2191	22.2	-1.0670480656715
6	2395	22.3	14.156319406254
6	2461	22.4	8.0516357388766
6	2472	22.5	0.973
6	2483	22.6	8.2681265020959
6	2494	22.7	14.411425034764
6	2505	22.8	5.1280008944346
6	2516	22.9	0.973
6	2527	23	15.117462112638
6	2538	23.1	1.3047367741882
6	2552	23.2	5.3837812125506
6	2571	23.3	0.973
6	2585	23.4	17.156716889584
6	2596	23.5	0.973
6	2607	23.6	2.8862140626172
6	2618	23.7	17.827728365391
6	2629	23.8	-0.39974533384886
6	2640	23.9	0.973
6	2651	24	20.367215291333
6	2662	24.1	0.973
6	2673	24.2	2.1782172016084
6	2684	24.3	6.6139324265297
6	2695	24.4	2.7550820170507
6	2706	24.5	11.43921655954
6	2717	24.6	7.5379783669884
6	2728	24.7	6.7580384994565
6	2739	24.8	0.973
6	2750	24.9	11.639326050716
6	2761	25	0.973
6	2772	25.1	17.203070329705
6	2856	25.2	2.6302567070184
6	2869	25.3	-0.34113756823817
6	2882	25.4	5.033995916885
6	2922	25.5	0.973
6	2974	25.6	16.977648997984
6	3026	25.7	6.7937313944216
6	3039	25.8	0.973
6	3052	25.9	13.921700840916
6	3065	26	8.1081341548246
6	3078	26.1	6.5902718256694
6	3091	26.2	-1.3664516413639
6	3104	26.3	2.1232721399921
6	3117	26.4	8.3635911197328
6	3130	26.5	8.7810796392326
6	3143	26.6	8.8300837661818
6	3156	26.7	0.973
6	3169	26.8	19.683683683155
6	3182	26.9	0.973
6	3195	27	17.670338344657
6	3208	27.1	5.7967920458929
6	3276	27.2	1.8135198100138
6	3498	27.3	-0.076756666367169
6	3572	27.4	2.7987225869791
6	3585	27.5	15.786503093443
6	3598	27.6	0.973
6	3611	27.7	17.451136168047
6	3624	27.8	8.4865139186465
6	3637	27.9	0.973
6	3650	28	1.5421803764792
6	3663	28.1	14.166730581537
6	3679	28.2	8.6925749427293
6	3698	28.3	0.973
6	3712	28.4	3.1275715084785
6	3725	28.5	5.0244937238237
6	3738	28.6	4.4822427615694
6	3751	28.7	21.251588686884
6	3764	28.8	-1.2228456379767
6	3777	28.9	5.6478298234982
6	3790	29	2.0587149939694
6	3803	29.1	-1.2916405372412
6	3816	29.2	16.304508930341
6	3829	29.3	5.4521568977811
6	3842	29.4	2.7782127394387
6	3855	29.5	5.739141333831
6	3868	29.6	10.193789301628
6	3881	29.7	4.0334590127255
6	3894	29.8	0.973
6	3907	29.9	13.617825848509
6	3920	30	0.973
6	3933	30.1	20.390979784523
6	4031	30.2	-1.1466802709011
6	4046	30.3	2.6736966352176
6	4061	30.4	2.8561773756763
6	4136	30.5	14.486082944905
6	4196	30.6	0.973
6	4244	30.7	4.5632530384564
6	4259	30.8	9.9524109015518
6	4274	30.9	17.109276684551
6	4289	31	0.973
6	4304	31.1	-0.51823512297465
6	4319	31.2	8.7457550668123
6	4334	31.3	4.953818893156
6	4349	31.4	-0.42654866535209
6	4364	31.5	19.618960851566
6	4379	31.6	0.973
6	4394	31.7	11.377490979855
6	4409	31.8	3.8667577624154
6	4424	31.9	0.50183799034602
6	4439	32	20.401289105584
6	4454	32.1	2.7550574610232
6	4524	32.2	0.973
6	4758	32.3	22.994632876028
6	4913	32.4	0.973
6	4981	32.5	10.013813126615
6	4996	32.6	5.660039689696
6	5011	32.7	0.96336400235641
6	5026	32.8	5.0391654258607
6	5041	32.9	0.973
6	5056	33	8.0715241158637
6	5071	33.1	17.675723618178
6	5089	33.2	5.9654030855044
6	5110	33.3	0.973
6	5131	33.4	18.841875532424
6	5148	33.5	6.0321075193001
6	5163	33.6	-0.8834909997961
6	5178	33.7	0.973
6	5193	33.8	10.722582011083
6	5208	33.9	-0.67491632941332
6	5223	34	12.931636318036
6	5238	34.1	12.59064205305
6	5253	34.2	0.973
6	5268	34.3	5.0243791224428
6	5283	34.4	1.1421829511497
6	5298	34.5	3.9723726151006
6	5313	34.6	9.8267626730639
6	5328	34.7	2.1935539679314
6	5343	34.8	2.4542117777873
6	5358	34.9	5.3800990344893
6	5373	35	10.027109639254
6	5388	35.1	5.9084459177708
6	5488	35.2	4.6995574302383
6	5505	35.3	7.7740546225639
6	5522	35.4	7.8609432361136
6	5605	35.5	0.973
6	5673	35.6	11.151120693432
6	5723	35.7	-0.71671513849453
6	5773	35.8	11.480136450541
6	5790	35.9	0.973
6	5807	36	12.130916011708
6	5824	36.1	6.6100289894444
6	5841	36.2	9.2132230017921
6	5858	36.3	0.973
6	5875	36.4	-1.3584732296116
6	5892	36.5	5.6205743224643
6	5909	36.6	15.094632166967
6	5926	36.7	0.973
6	5943	36.8	4.5933463506961
6	5960	36.9	3.4475968310046
6	5977	37	18.561553595986
6	5994	37.1	0.75675524614505
6	6066	37.2	10.710452134111
6	6310	37.3	5.7058588651558
6	6548	37.4	-0.78412086487755
6	6616	37.5	1.9179179040663
6	6633	37.6	8.7090750926771
6	6650	37.7	11.405194958445
6	6667	37.8	0.973
6	6684	37.9	3.4031634263685
6	6701	38	16.010712724985
6	6718	38.1	6.9424922319264
6	6738	38.2	-0.46878255211293
6	6765	38.3	10.077762025622
6	6789	38.4	0.973
6	6807	38.5	6.3450340314488
6	6824	38.6	1.6299767895809
6	6841	38.7	13.967948589198
6	6858	38.8	4.0255233899934
6	6875	38.9	6.8189496000548
6	6892	39	11.708832075192
6	6909	39.1	1.9366162889752
6	6926	39.2	0.973
6	6943	39.3	11.066035922236
6	6960	39.4	0.082093263812637
6	6977	39.5	11.146142535806
6	6994	39.6	6.81291247132
6	7011	39.7	-0.29270373955244
6	7028	39.8	3.7708236144366
6	7045	39.9	16.84953464975
6	7062	40	-0.50765070499582
6	7079	40.1	0.973
6	7187	40.2	5.9958930376088
6	7206	40.3	16.151936107086
6	7225	40.4	6.4694035670512
6	7349	40.5	0.14832585992957
6	7413	40.6	0.973
6	7465	40.7	17.806631449808
6	7523	40.8	5.2764714663644
6	7542	40.9	-0.40255388897128
6	7561	41	5.7787791844506
6	7580	41.1	0.973
6	7599	41.2	14.991374081516
6	7618	41.3	0.973
6	7637	41.4	14.536067655149
6	7656	41.5	0.973
6	7675	41.6	7.6301744049066
6	7694	41.7	12.029982359452
6	7713	41.8	0.973
6	7732	41.9	20.645447636564
6	7751	42	0.973
6	7770	42.1	13.031735564854
6	7844	42.2	11.353781441991
6	8086	42.3	1.0971874684327
6	8350	42.4	0.973
6	8369	42.5	7.3745353361086
6	8388	42.6	10.832578560249
6	8407	42.7	0.973
6	8426	42.8	14.978018448174
6	8445	42.9	0.973
6	8464	43	11.304413816519
6	8483	43.1	9.3203981176185
6	8558	43.2	3.2720080569655
6	8671	43.3	10.576651632948
5	7	0.3	4.7076447059336
5	10	0.4	4.4789687658793
5	13	0.5	4.1958617805312
5	16	0.6	4.2994300789104
5	19	0.7	3.8184071803533
5	22	0.8	4.1455384720677
5	25	0.9	3.4957618313187
5	28	1	4.1737797422545
5	31	1.1	3.6537824375064
5	34	1.2	3.4875752566503
5	37	1.3	4.0390457294416
5	40	1.4	3.906031975057
5	43	1.5	4.2561634868616
5	46	1.6	2.7705674956087
5	49	1.7	4.8582175606862
5	52	1.8	2.5908430898562
5	55	1.9	4.318359263707
5	58	2	4.0413961966988
5	61	2.1	3.8058372208616
5	83	2.2	3.0206874164287
5	86	2.3	2.9695781838382
5	89	2.4	3.6777626961702
5	92	2.5	3.8000570714939
5	95	2.6	3.5798885906115
5	98	2.7	4.0180380170932
5	101	2.8	2.6860084169311
5	104	2.9	2.9098030779278
5	107	3	4.8224098532228
5	110	3.1	4.1565095959231
5	113	3.2	4.7821767575806
5	116	3.3	3.3795703086071
5	119	3.4	4.9494540021988
5	122	3.5	4.0793961565942
5	125	3.6	2.9184503928991
5	128	3.7	2.6071121142013
5	131	3.8	3.0546081077773
5	134	3.9	4.6491230564425
5	137	4	2.8249696368584
5	140	4.1	2.8247818723321
5	143	4.2	2.5534541427623
5	146	4.3	3.815979899955
5	149	4.4	3.0021035904065
5	152	4.5	2.9977231187513
5	155	4.6	3.8463015930029
5	158	4.7	3.6988062987803
5	161	4.8	3.0486770608695
5	164	4.9	3.3028011658462
5	167	5	4.7043139406014
5	170	5.1	3.1984183710301
5	174	5.2	3.4001974575222
5	179	5.3	4.6416167862481
5	184	5.4	2.638327703462
5	204	5.5	3.6953791795531
5	209	5.6	3.9633451472037
5	214	5.7	4.3386109714629
5	219	5.8	3.0644157837378
5	224	5.9	3.8596241601044
5	229	6	3.5789151291829
5	234	6.1	4.9530255049467
5	239	6.2	3.4559112478746
5	244	6.3	3.4697606938425
5	249	6.4	3.4576650033705
5	254	6.5	2.6406298117945
5	259	6.6	3.2954492553836
5	264	6.7	4.1012302448507
5	269	6.8	3.9074201183394
5	274	6.9	3.255922011449
5	279	7	4.8494363337522
5	284	7.1	3.3330832218053
5	320	7.2	3.3234053157503
5	356	7.3	4.4740435958374
5	361	7.4	4.6776842541294
5	366	7.5	4.2114291258622
5	371	7.6	4.0907230664743
5	376	7.7	3.5745080601191
5	381	7.8	3.9034962165169
5	386	7.9	2.5290654203855
5	391	8	4.7448879829608
5	396	8.1	4.2636258978803
5	402	8.2	0.11891811853275
5	408	8.3	-1.2294970272342
5	413	8.4	0.99954180186614
5	418	8.5	-0.53254792874213
5	423	8.6	0.55471296189353
5	428	8.7	0.21364000393078
5	433	8.8	0.12148611829616
5	438	8.9	-1.3648861320689
5	443	9	1.2953666062094
5	448	9.1	-0.14599851798266
5	453	9.2	-0.4303570225602
5	458	9.3	-1.1306701629655
5	463	9.4	1.8097298993962
5	468	9.5	-1.8521090887953
5	473	9.6	1.8546162638813
5	478	9.7	-2.2009026602609
5	483	9.8	1.2695206672652
5	488	9.9	-1.2702747312142
5	493	10	0.92978893197142
5	498	10.1	-0.33604515832849
5	504	10.2	1.7501894809538
5	511	10.3	-2.3509973537875
5	518	10.4	1.70861632796
5	546	10.5	-0.98130246740766
5	553	10.6	0.68599549471401
5	581	10.7	0.49360213801265
5	588	10.8	-0.87444828823209
5	595	10.9	0.14408121875022
5	602	11	1.0375711374218
5	609	11.1	0.027070048381574
5	616	11.2	-0.58864117076155
5	623	11.3	-1.3094328105217
5	630	11.4	0.31503720325418
5	637	11.5	1.1289925838355
5	644	11.6	-0.80445692175999
5	651	11.7	1.0539311810862
5	658	11.8	0.40061244624667
5	665	11.9	-1.4123073057272
5	672	12	-0.41393904015422
5	679	12.1	0.7547648914624
5	729	12.2	-0.35717318009119
5	820	12.3	-0.79970263352152
5	827	12.4	1.6823918966111
5	834	12.5	-1.1424348555738
5	841	12.6	-0.41588273306843
5	848	12.7	1.8255168903852
5	855	12.8	-1.7439897742588
5	862	12.9	0.34589685616083
5	869	13	0.23541550326627
5	876	13.1	-0.96035835682414
5	885	13.2	0.60040484298952
5	895	13.3	0.48012007435318
5	902	13.4	-0.27695986209437
5	909	13.5	0.062954088789411
5	916	13.6	1.4990384009434
5	923	13.7	-1.7422033322509
5	930	13.8	1.0649923089659
5	937	13.9	-1.1477305652807
5	944	14	1.5342394186882
5	951	14.1	0.10775045491755
5	958	14.2	-1.2462471908657
5	965	14.3	1.393119173008
5	972	14.4	-1.5461954515195
5	979	14.5	1.077101479168
5	986	14.6	-0.36574797239155
5	993	14.7	-1.5412009094143
5	1000	14.8	0.44462060905062
5	1007	14.9	0.89566954527982
5	1014	15	-1.1788910982432
5	1021	15.1	1.1255836032797
5	1056	15.2	0.79950216750149
5	1065	15.3	-0.032611566712148
5	1074	15.4	0.096682372386567
5	1110	15.5	-1.7087474447908
5	1119	15.6	1.0003391565988
5	1155	15.7	-0.7256136869546
5	1164	15.8	-0.061567081720568
5	1173	15.9	-0.63366476737428
5	1182	16	2.40951857646
5	1191	16.1	-1.795691200532
5	1200	16.2	0.52238489675801
5	1209	16.3	0.80260019400157
5	1218	16.4	-1.4842529426096
5	1227	16.5	1.1208650597837
5	1236	16.6	-0.89765680197161
5	1245	16.7	1.3493006071076
5	1254	16.8	-1.031336071901
5	1263	16.9	-0.89246354124043
5	1272	17	0.99645301117562
5	1281	17.1	-0.48622307251208
5	1345	17.2	0.82975239725783
5	1513	17.3	0.53007015492767
5	1522	17.4	-1.3833944778889
5	1531	17.5	1.2803404184524
5	1540	17.6	0.42346366681159
5	1549	17.7	-0.63441678590607
5	1558	17.8	-0.16488990106154
5	1567	17.9	0.88268277118914
5	1576	18	-1.6367851174437
5	1585	18.1	0.35703391768038
5	1597	18.2	-1.134399343282
5	1612	18.3	0.81815185607411
5	1621	18.4	1.6060679970542
5	1630	18.5	-0.74841535009909
5	1639	18.6	-0.67074993159622
5	1648	18.7	-0.10166182881221
5	1657	18.8	0.88859953917563
5	1666	18.9	0.21976522519253
5	1675	19	-1.2546308239689
5	1684	19.1	-0.64970580453519
5	1693	19.2	1.7335723730503
5	1702	19.3	-0.66064766491763
5	1711	19.4	0.77682658156846
5	1720	19.5	-0.4167497495655
5	1729	19.6	0.24135317537002
5	1738	19.7	-1.465567232226
5	1747	19.8	0.86619122535922
5	1756	19.9	-0.4987014218932
5	1765	20	0.37859593052417
5	1774	20.1	1.0514338628855
5	1817	20.2	-0.52691243123263
5	1828	20.3	-0.97845375654288
5	1839	20.4	1.6589295072481
5	1883	20.5	0.094519496778958
5	1927	20.6	-0.48803535290062
5	1971	20.7	-0.78705115010962
5	1982	20.8	-0.57375918258913
5	1993	20.9	1.5088042616844
5	2004	21	-1.9896598241758
5	2015	21.1	1.8977307179011
5	2026	21.2	-1.8272899341537
5	2037	21.3	1.1578981584171
5	2048	21.4	0.48284818592947
5	2059	21.5	-1.2007643270772
5	2070	21.6	1.5629628871102
5	2081	21.7	-1.5135718614329
5	2092	21.8	0.96246250381228
5	2103	21.9	0.17685695318505
5	2114	22	0.18381199450232
5	2125	22.1	-0.86223433143459
5	2191	22.2	-0.8433618536219
5	2395	22.3	1.2676414527232
5	2461	22.4	0.4181619384326
5	2472	22.5	-1.8015913240379
5	2483	22.6	0.45572480594274
5	2494	22.7	1.2998950725887
5	2505	22.8	0.013138767681085
5	2516	22.9	-1.4605875738198
5	2527	23	1.3981858466286
5	2538	23.1	-0.51537325081881
5	2552	23.2	0.05084159958642
5	2571	23.3	-0.99123589869123
5	2585	23.4	1.6787099017529
5	2596	23.5	-1.1972222471377
5	2607	23.6	-0.29341924062464
5	2618	23.7	1.768871351378
5	2629	23.8	-0.75248445675243
5	2640	23.9	-1.385776574607
5	2651	24	2.1205174649367
5	2662	24.1	-1.0286340443417
5	2673	24.2	-0.39290044864174
5	2684	24.3	0.22285203682259
5	2695	24.4	-0.31240771408193
5	2706	24.5	0.88926936383359
5	2717	24.6	0.34638468408957
5	2728	24.7	0.23717680713162
5	2739	24.8	-0.91585946618579
5	2750	24.9	0.91286125418264
5	2761	25	-1.5154065028764
5	2772	25.1	1.6813826729776
5	2856	25.2	-0.33367458905559
5	2869	25.3	-0.74400000623427
5	2882	25.4	0.0022884272038937
5	2922	25.5	-0.90885916433763
5	2974	25.6	1.6533816396259
5	3026	25.7	0.24175378668588
5	3039	25.8	-1.9658133911435
5	3052	25.9	1.2341736402595
5	3065	26	0.42534131265711
5	3078	26.1	0.21404349594377
5	3091	26.2	-0.88636868225876
5	3104	26.3	-0.40075576922391
5	3117	26.4	0.46417246921919
5	3130	26.5	0.51908701774664
5	3143	26.6	0.52281172189396
5	3156	26.7	-2.4055499845417
5	3169	26.8	2.0282544835936
5	3182	26.9	-2.0661383779952
5	3195	27	1.7525281792041
5	3208	27.1	0.1058382994961
5	3276	27.2	-0.44506450940389
5	3498	27.3	-0.70621430117171
5	3572	27.4	-0.30520552070811
5	3585	27.5	1.4900748129003
5	3598	27.6	-1.8821610993473
5	3611	27.7	1.7223379114876
5	3624	27.8	0.47662526834756
5	3637	27.9	-1.4596552675357
5	3650	28	-0.47987987170927
5	3663	28.1	1.2685600778786
5	3679	28.2	0.50610770878848
5	3698	28.3	-1.6683400532929
5	3712	28.4	-0.25848620454781
5	3725	28.5	0.0059347727801651
5	3738	28.6	-0.069389693671837
5	3751	28.7	2.2427394782426
5	3764	28.8	-0.86654148006346
5	3777	28.9	0.086695782956667
5	3790	29	-0.41019209544174
5	3803	29.1	-0.87469064979814
5	3816	29.2	1.5627709671389
5	3829	29.3	0.058098273584619
5	3842	29.4	-0.31155350792687
5	3855	29.5	0.098818489350379
5	3868	29.6	0.71204294275958
5	3881	29.7	-0.13984398683533
5	3894	29.8	-1.4397164923139
5	3907	29.9	1.18897700042
5	3920	30	-1.685777704115
5	3933	30.1	2.1224987594178
5	4031	30.2	-0.85610953625292
5	4046	30.3	-0.32507617492229
5	4061	30.4	-0.29880379210226
5	4136	30.5	1.3070366712054
5	4196	30.6	-2.1236115787178
5	4244	30.7	-0.058053701650351
5	4259	30.8	0.68900019105058
5	4274	30.9	1.6684560506837
5	4289	31	-1.227130923653
5	4304	31.1	-0.76717960007954
5	4319	31.2	0.51999511895701
5	4334	31.3	-0.0071668141754344
5	4349	31.4	-0.75403291906696
5	4364	31.5	2.0180192985572
5	4379	31.6	-2.0901108870748
5	4394	31.7	0.88551492895931
5	4409	31.8	-0.1579519698862
5	4424	31.9	-0.62469118915033
5	4439	32	2.1247886301717
5	4454	32.1	-0.31618348904885
5	4524	32.2	-2.0260257943301
5	4758	32.3	2.4819315806963
5	4913	32.4	-1.6878976282896
5	4981	32.5	0.69282658339944
5	4996	32.6	0.088226145016961
5	5011	32.7	-0.56213172967546
5	5026	32.8	0.0043834367534146
5	5041	32.9	-0.98401182563975
5	5056	33	0.42894441459794
5	5071	33.1	1.7489198606927
5	5089	33.2	0.12712477706373
5	5110	33.3	-2.0211164088687
5	5131	33.4	1.9101960788248
5	5148	33.5	0.13623994076625
5	5163	33.6	-0.81956756184809
5	5178	33.7	-1.2960609892616
5	5193	33.8	0.79419413639698
5	5208	33.9	-0.78874832775909
5	5223	34	1.0988062527031
5	5238	34.1	1.0435207473347
5	5253	34.2	-0.90040420705918
5	5268	34.3	0.00036192417610437
5	5283	34.4	-0.53715080779511
5	5298	34.5	-0.14316651446279
5	5313	34.6	0.66689672647044
5	5328	34.7	-0.39135417726357
5	5343	34.8	-0.35410052922089
5	5358	34.9	0.052746348083019
5	5373	35	0.69468834786676
5	5388	35.1	0.12254602625035
5	5488	35.2	-0.044976881472394
5	5505	35.3	0.37954877479933
5	5522	35.4	0.38947894412559
5	5605	35.5	-1.769626683672
5	5673	35.6	0.85117834270932
5	5723	35.7	-0.79509360657539
5	5773	35.8	0.89613216521684
5	5790	35.9	-0.91678416414652
5	5807	36	0.98592653288506
5	5824	36.1	0.21892891032621
5	5841	36.2	0.57633479184005
5	5858	36.3	-1.4151510066586
5	5875	36.4	-0.88380803121254
5	5892	36.5	0.088928122422658
5	5909	36.6	1.3972499221563
5	5926	36.7	-1.2171467923326
5	5943	36.8	-0.054751631687395
5	5960	36.9	-0.2136733190855
5	5977	37	1.8742254684912
5	5994	37.1	-0.59159246913623
5	6066	37.2	0.78505388577469
5	6310	37.3	0.091647352091968
5	6548	37.4	-0.80562313145492
5	6616	37.5	-0.42942514817696
5	6633	37.6	0.51159031747375
5	6650	37.7	0.87951033201534
5	6667	37.8	-1.9234304130077
5	6684	37.9	-0.22044447425287
5	6701	38	1.5224320051493
5	6718	38.1	0.2638416615082
5	6738	38.2	-0.76160758850165
5	6765	38.3	0.69855768291745
5	6789	38.4	-1.4866002928466
5	6807	38.5	0.18751304131001
5	6824	38.6	-0.46743733691983
5	6841	38.7	1.2418847053777
5	6858	38.8	-0.13758442015387
5	6875	38.9	0.24907992046792
5	6892	39	0.9208951133769
5	6909	39.1	-0.42963203042746
5	6926	39.2	-1.9002781773452
5	6943	39.3	0.84226045350078
5	6960	39.4	-0.68335990945343
5	6977	39.5	0.85222061432432
5	6994	39.6	0.24897782946937
5	7011	39.7	-0.73617386049591
5	7028	39.8	-0.17010842449963
5	7045	39.9	1.635209711385
5	7062	40	-0.76715674018487
5	7079	40.1	-1.0460483987117
5	7187	40.2	0.13987481012009
5	7206	40.3	1.5398440358695
5	7225	40.4	0.19750631588977
5	7349	40.5	-0.67637232830748
5	7413	40.6	-0.92729184310883
5	7465	40.7	1.7654842650518
5	7523	40.8	0.031532981083728
5	7542	40.9	-0.75299785064999
5	7561	41	0.10392256488558
5	7580	41.1	-1.4132221671753
5	7599	41.2	1.3815906119999
5	7618	41.3	-0.988052568282
5	7637	41.4	1.3156642956892
5	7656	41.5	-1.0607056465233
5	7675	41.6	0.36276923085097
5	7694	41.7	0.96654871071223
5	7713	41.8	-2.1670263510896
5	7732	41.9	2.1589858736843
5	7751	42	-1.8242432369152
5	7770	42.1	1.110823469935
5	7844	42.2	0.87190825899597
5	8086	42.3	-0.54560135642532
5	8350	42.4	-1.1168235947844
5	8369	42.5	0.32840450818185
5	8388	42.6	0.80341430904809
5	8407	42.7	-1.4264354144689
5	8426	42.8	1.3782747706864
5	8445	42.9	-1.4903216273524
5	8464	43	0.87346655956935
5	8483	43.1	0.59429991291836
5	8558	43.2	-0.2432322781533
5	8671	43.3	0.76494121574797
4	4	0.2	0.48627966244239
4	7	0.3	0.95704413303575
4	10	0.4	1.4049410096237
4	13	0.5	1.8245271876768
4	16	0.6	2.2544701955678
4	19	0.7	2.6363109136032
4	22	0.8	3.0508647608099
4	25	0.9	3.4004409439418
4	28	1	3.8178189181673
4	31	1.1	4.1831971619179
4	34	1.2	4.5319546875829
4	37	1.3	4.9358592605271
4	40	1.4	5.3264624580328
4	43	1.5	5.7520788067189
4	46	1.6	6.0291355562798
4	49	1.7	6.5149573123484
4	52	1.8	6.774041621334
4	55	1.9	7.2058775477047
4	58	2	7.6100171673746
4	61	2.1	7.9906008894608
4	83	2.2	8.2926696311036
4	86	2.3	8.5896274494875
4	89	2.4	8.9574037191045
4	92	2.5	9.3374094262539
4	95	2.6	9.695398285315
4	98	2.7	10.097202087024
4	101	2.8	10.365802928717
4	104	2.9	10.65678323651
4	107	3	11.139024221833
4	110	3.1	11.554675181425
4	113	3.2	12.032892857183
4	116	3.3	12.370849888044
4	119	3.4	12.865795288263
4	122	3.5	13.273734903923
4	125	3.6	13.565579943213
4	128	3.7	13.826291154633
4	131	3.8	14.131751965411
4	134	3.9	14.596664271055
4	137	4	14.879161234741
4	140	4.1	15.161639421974
4	143	4.2	15.41698483625
4	146	4.3	15.798582826246
4	149	4.4	16.098793185286
4	152	4.5	16.398565497161
4	155	4.6	16.783195656462
4	158	4.7	17.15307628634
4	161	4.8	17.457943992427
4	164	4.9	17.788224109011
4	167	5	18.258655503072
4	170	5.1	18.578497340175
4	174	5.2	18.918517085927
4	179	5.3	19.382678764552
4	184	5.4	19.646511534898
4	204	5.5	20.016049452853
4	209	5.6	20.412383967573
4	214	5.7	20.84624506472
4	219	5.8	21.152686643093
4	224	5.9	21.538649059104
4	229	6	21.896540572022
4	234	6.1	22.391843122517
4	239	6.2	22.737434247304
4	244	6.3	23.084410316689
4	249	6.4	23.430176817026
4	254	6.5	23.694239798205
4	259	6.6	24.023784723743
4	264	6.7	24.433907748229
4	269	6.8	24.824649760062
4	274	6.9	25.150241961207
4	279	7	25.635185594583
4	284	7.1	25.968493916763
4	320	7.2	26.300834448338
4	356	7.3	26.748238807922
4	361	7.4	27.216007233335
4	366	7.5	27.637150145921
4	371	7.6	28.046222452568
4	376	7.7	28.40367325858
4	381	7.8	28.794022880232
4	386	7.9	29.046929422271
4	391	8	29.521418220567
4	396	8.1	29.947780810355
4	402	8.2	29.959672622208
4	408	8.3	29.836722919485
4	413	8.4	29.936677099671
4	418	8.5	29.883422306797
4	423	8.6	29.938893602986
4	428	8.7	29.960257603379
4	433	8.8	29.972406215209
4	438	8.9	29.835917602002
4	443	9	29.965454262623
4	448	9.1	29.950854410825
4	453	9.2	29.907818708569
4	458	9.3	29.794751692272
4	463	9.4	29.975724682212
4	468	9.5	29.790513773332
4	473	9.6	29.97597539972
4	478	9.7	29.755885133694
4	483	9.8	29.882837200421
4	488	9.9	29.755809727299
4	493	10	29.848788620497
4	498	10.1	29.815184104664
4	504	10.2	29.990203052759
4	511	10.3	29.75510331738
4	518	10.4	29.925964950176
4	546	10.5	29.827834703436
4	553	10.6	29.896434252907
4	581	10.7	29.945794466708
4	588	10.8	29.858349637885
4	595	10.9	29.87275775976
4	602	11	29.976514873502
4	609	11.1	29.97922187834
4	616	11.2	29.920357761264
4	623	11.3	29.789414480212
4	630	11.4	29.820918200538
4	637	11.5	29.933817458921
4	644	11.6	29.853371766745
4	651	11.7	29.958764884854
4	658	11.8	29.998826129478
4	665	11.9	29.857595398906
4	672	12	29.81620149489
4	679	12.1	29.891677984037
4	729	12.2	29.855960666027
4	820	12.3	29.775990402675
4	827	12.4	29.944229592336
4	834	12.5	29.829986106779
4	841	12.6	29.788397833472
4	848	12.7	29.970949522511
4	855	12.8	29.796550545085
4	862	12.9	29.831140230701
4	869	13	29.854681781027
4	876	13.1	29.758645945345
4	885	13.2	29.818686429644
4	895	13.3	29.866698437079
4	902	13.4	29.83900245087
4	909	13.5	29.845297859749
4	916	13.6	29.995201699843
4	923	13.7	29.820981366618
4	930	13.8	29.927480597515
4	937	13.9	29.812707540987
4	944	14	29.966131482855
4	951	14.1	29.976906528347
4	958	14.2	29.852281809261
4	965	14.3	29.991593726561
4	972	14.4	29.836974181409
4	979	14.5	29.944684329326
4	986	14.6	29.908109532087
4	993	14.7	29.753989441146
4	1000	14.8	29.798451502051
4	1007	14.9	29.888018456579
4	1014	15	29.770129346754
4	1021	15.1	29.882687707082
4	1056	15.2	29.962637923833
4	1065	15.3	29.959376767161
4	1074	15.4	29.9690450044
4	1110	15.5	29.798170259921
4	1119	15.6	29.898204175581
4	1155	15.7	29.825642806885