file 279946 1419252980                                          
version 2
run nodebug-0-20141222-20:54:58-669
attr configname nodebug
attr datetime 20141222-20:54:58
attr experiment nodebug
attr inifile omnetpp.ini
attr iterationvars ""
attr iterationvars2 $repetition=0
attr measurement ""
attr network WAVETest
attr processid 669
attr repetition 0
attr replication #0
attr resultdir results
attr runnumber 0
attr seedset 0

vector 2  WAVETest.node[0].veinsmobility  posx  ETV
vector 3  WAVETest.node[0].veinsmobility  posy  ETV
vector 4  WAVETest.node[0].veinsmobility  speed  ETV
vector 5  WAVETest.node[0].veinsmobility  acceleration  ETV
vector 6  WAVETest.node[0].veinsmobility  co2emission  ETV
vector 9  WAVETest.node[1].veinsmobility  posx  ETV
vector 10  WAVETest.node[1].veinsmobility  posy  ETV
vector 11  WAVETest.node[1].veinsmobility  speed  ETV
vector 12  WAVETest.node[1].veinsmobility  acceleration  ETV
vector 13  WAVETest.node[1].veinsmobility  co2emission  ETV
vector 16  WAVETest.node[2].veinsmobility  posx  ETV
vector 17  WAVETest.node[2].veinsmobility  posy  ETV
vector 18  WAVETest.node[2].veinsmobility  speed  ETV
vector 19  WAVETest.node[2].veinsmobility  acceleration  ETV
vector 20  WAVETest.node[2].veinsmobility  co2emission  ETV
vector 23  WAVETest.node[3].veinsmobility  posx  ETV
vector 24  WAVETest.node[3].veinsmobility  posy  ETV
vector 25  WAVETest.node[3].veinsmobility  speed  ETV
vector 26  WAVETest.node[3].veinsmobility  acceleration  ETV
vector 27  WAVETest.node[3].veinsmobility  co2emission  ETV
vector 30  WAVETest.node[4].veinsmobility  posx  ETV
vector 31  WAVETest.node[4].veinsmobility  posy  ETV
vector 32  WAVETest.node[4].veinsmobility  speed  ETV
vector 33  WAVETest.node[4].veinsmobility  acceleration  ETV
vector 34  WAVETest.node[4].veinsmobility  co2emission  ETV
vector 37  WAVETest.node[5].veinsmobility  posx  ETV
vector 38  WAVETest.node[5].veinsmobility  posy  ETV
vector 39  WAVETest.node[5].veinsmobility  speed  ETV
vector 40  WAVETest.node[5].veinsmobility  acceleration  ETV
vector 41  WAVETest.node[5].veinsmobility  co2emission  ETV
vector 44  WAVETest.node[6].veinsmobility  posx  ETV
vector 45  WAVETest.node[6].veinsmobility  posy  ETV
vector 46  WAVETest.node[6].veinsmobility  speed  ETV
vector 47  WAVETest.node[6].veinsmobility  acceleration  ETV
vector 48  WAVETest.node[6].veinsmobility  co2emission  ETV
vector 51  WAVETest.node[7].veinsmobility  posx  ETV
vector 52  WAVETest.node[7].veinsmobility  posy  ETV
vector 53  WAVETest.node[7].veinsmobility  speed  ETV
vector 54  WAVETest.node[7].veinsmobility  acceleration  ETV
vector 55  WAVETest.node[7].veinsmobility  co2emission  ETV
vector 58  WAVETest.node[8].veinsmobility  posx  ETV
vector 59  WAVETest.node[8].veinsmobility  posy  ETV
vector 60  WAVETest.node[8].veinsmobility  speed  ETV
vector 61  WAVETest.node[8].veinsmobility  acceleration  ETV
vector 62  WAVETest.node[8].veinsmobility  co2emission  ETV
6	2885 10969 7 8671 0.3 43.3 431 -1.3664516413639 38.669141058489 3568.2010921949 55468.499260429
5	13854 12092 7 8671 0.3 43.3 431 -2.4055499845417 4.9530255049467 295.02716247132 1548.9993176901
4	25946 11699 4 8671 0.2 43.3 432 0.48627966244239 29.998826129478 11740.568745866 338636.83978422
3	37645 8298 2 8671 0.1 43.3 433 4029.95 4029.95 1744968.35 7032135202.0824
2	45943 11691 2 8671 0.1 43.3 433 27.6 1198.6579749957 242853.10638564 192960435.76071
13	57634 10189 179 8671 5.3 43.3 381 -1.3382130191245 34.314216765057 3229.8758485057 50695.001407511
12	67823 11157 179 8671 5.3 43.3 381 -2.4410684569739 4.9766082456335 294.79096175864 1493.5096581548
11	78980 10823 174 8671 5.2 43.3 382 0.485449505219 29.999986162409 10277.263224712 295034.75885231
10	89803 7821 170 8671 5.1 43.3 383 4029.95 4029.95 1543470.85 6220110351.9575
9	97624 10440 170 8671 5.1 43.3 383 27.6 1052.3298679031 187638.05676529 130690049.10913
20	108064 8986 511 8671 10.3 43.3 331 -1.4014250778889 39.900245068962 2821.023355103 45328.583248421
19	117050 9775 511 8671 10.3 43.3 331 -2.3296199279139 4.953695514705 293.73119693785 1386.1370754674
18	126825 9483 504 8671 10.2 43.3 332 0.49292982601328 29.999863507284 8776.7830935871 250373.0803294
17	136308 6880 498 8671 10.1 43.3 333 4029.95 4029.95 1341973.35 5408085501.8325
16	143188 9485 498 8671 10.1 43.3 333 27.6 902.29170440673 138450.2907969 82466019.856074
27	152673 7661 1065 8671 15.3 43.3 281 -1.3534457834629 37.582457017919 2587.1514901902 41905.334718829
26	160334 8305 1065 8671 15.3 43.3 281 -2.361377258203 4.9714313622098 294.21756318642 1342.2318289313
25	168639 8095 1056 8671 15.2 43.3 282 0.499061015388 29.994762483693 7256.4510747379 204539.56538702
24	176734 5887 1021 8671 15.1 43.3 283 4029.95 4029.95 1140475.85 4596060651.7075
23	182621 8095 1021 8671 15.1 43.3 283 27.6 750.25302574038 96428.534889344 47524625.451109
34	190716 6343 1828 8671 20.3 43.3 231 -1.2881319469537 37.789156023615 2242.4784141076 38423.772876849
33	197059 6817 1828 8671 20.3 43.3 231 -2.2855684021488 4.9802878122492 294.05950507149 1312.784233525
32	203876 6657 1817 8671 20.2 43.3 232 0.48086686868919 29.999698106956 5800.5977297051 161622.09512409
31	210533 4847 1774 8671 20.1 43.3 233 4029.95 4029.95 938978.35 3784035801.5825
30	215380 6663 1774 8671 20.1 43.3 233 27.6 604.67109123293 63218.705512734 24955863.249478
41	222043 4995 2869 8671 25.3 43.3 181 -1.1553427001463 35.179151364067 1941.0931310059 36237.907302126
40	227038 5318 2869 8671 25.3 43.3 181 -2.0905708294595 4.9578208109597 293.49145017553 1293.331414896
39	232356 5232 2856 8671 25.2 43.3 182 0.49417836313369 29.993560885137 4322.5120149397 117530.32785077
38	237588 3807 2772 8671 25.1 43.3 183 4029.95 4029.95 737480.85 2972010951.4575
37	241395 5224 2772 8671 25.1 43.3 183 27.6 456.8668691559 36864.29924275 10849465.525132
48	246619 3726 4046 8671 30.3 43.3 131 -0.88728709637406 36.838925818389 1581.2125779205 30695.890613768
47	250345 3832 4046 8671 30.3 43.3 131 -1.9869596406352 4.9251241964521 294.20707940822 1169.5959158325
46	254177 3792 4031 8671 30.2 43.3 132 0.49776263639797 29.98830205336 2771.1366126039 70674.856153407
45	257969 2767 3933 8671 30.1 43.3 133 4029.95 4029.95 535983.35 2159986101.3325
44	260736 3799 3933 8671 30.1 43.3 133 27.6 301.72181420266 17209.528777908 3223832.3528655
55	264535 2318 5505 8671 35.3 43.3 81 0.973 38.721703751901 1304.7605283307 27285.048962036
54	266853 2332 5505 8671 35.3 43.3 81 -0.92265967396088 4.9933073285501 293.24978472723 1160.1016130734
53	269185 2358 5488 8671 35.2 43.3 82 0.49313562375028 29.912418702734 1342.2945344451 28507.112779057
52	271543 1727 5388 8671 35.1 43.3 83 4029.95 4029.95 334485.85 1347961251.2075
51	273270 2363 5388 8671 35.1 43.3 83 27.6 158.84764203487 5995.9031746782 564779.63760552
62	275633 888 7206 8671 40.3 43.3 31 2.2108884580184 14.456954911969 233.29756267117 2080.713151629
61	276521 891 7206 8671 40.3 43.3 31 2.5049362890422 4.9757917056559 118.08283653 465.57719550925
60	277412 922 7187 8671 40.2 43.3 32 0.47809932876844 12.286382981769 210.64803753208 1758.3434142293
59	278334 687 7079 8671 40.1 43.3 33 4029.95 4029.95 132988.35 535936401.0825
58	279021 925 7079 8671 40.1 43.3 33 27.6 47.436165455031 1136.7003240489 40393.509344293
